MODEL 1
REMARK VINA RESULT:    -6.427      0.000      0.000
REMARK INTER + INTRA:          -7.505
REMARK INTER:                  -7.366
REMARK INTRA:                  -0.138
REMARK UNBOUND:                -0.138
REMARK  Name = 
REMARK  3 active torsions:
REMARK  status: ('A' for Active; 'I' for Inactive)
REMARK    1  A    between atoms: O_1  and  C_2
REMARK    2  A    between atoms: C_2  and  C_4
REMARK    3  A    between atoms: C_7  and  N_10
REMARK                            x       y       z     vdW  Elec       q    Type
REMARK                         _______ _______ _______ _____ _____    ______ ____
ROOT
ATOM      1  C   UNL     1      35.583  91.285  47.679  0.00  0.00    +0.000 A 
ATOM      2  C   UNL     1      36.687  91.154  48.528  0.00  0.00    +0.000 A 
ATOM      3  C   UNL     1      37.026  92.188  49.411  0.00  0.00    +0.000 A 
ATOM      4  C   UNL     1      36.248  93.350  49.487  0.00  0.00    +0.000 A 
ATOM      5  C   UNL     1      35.150  93.471  48.622  0.00  0.00    +0.000 A 
ATOM      6  C   UNL     1      34.808  92.447  47.732  0.00  0.00    +0.000 A 
ENDROOT
BRANCH   4   7
ATOM      7  N   UNL     1      36.537  94.416  50.354  0.00  0.00    +0.000 N 
ATOM      8  C   UNL     1      36.288  94.525  51.680  0.00  0.00    +0.000 C 
ATOM      9  N   UNL     1      36.359  93.611  52.579  0.00  0.00    +0.000 NA
ATOM     10  N   UNL     1      35.977  95.786  52.056  0.00  0.00    +0.000 N 
ATOM     11  H   UNL     1      36.800  95.280  49.898  0.00  0.00    +0.000 HD
ATOM     12  H   UNL     1      36.680  92.749  52.127  0.00  0.00    +0.000 HD
ATOM     13  H   UNL     1      35.195  96.167  51.538  0.00  0.00    +0.000 HD
ATOM     14  H   UNL     1      35.757  95.784  53.049  0.00  0.00    +0.000 HD
ENDBRANCH   4   7
BRANCH   1  15
ATOM     15  C   UNL     1      35.238  90.151  46.785  0.00  0.00    +0.000 C 
ATOM     16  O   UNL     1      35.988  89.739  45.918  0.00  0.00    +0.000 OA
BRANCH  15  17
ATOM     17  O   UNL     1      34.007  89.643  47.003  0.00  0.00    +0.000 OA
ATOM     18  H   UNL     1      33.984  88.694  47.222  0.00  0.00    +0.000 HD
ENDBRANCH  15  17
ENDBRANCH   1  15
TORSDOF 3
ENDMDL
MODEL 2
REMARK VINA RESULT:    -6.415      4.221      5.548
REMARK INTER + INTRA:          -7.491
REMARK INTER:                  -7.315
REMARK INTRA:                  -0.176
REMARK UNBOUND:                -0.138
REMARK  Name = 
REMARK  3 active torsions:
REMARK  status: ('A' for Active; 'I' for Inactive)
REMARK    1  A    between atoms: O_1  and  C_2
REMARK    2  A    between atoms: C_2  and  C_4
REMARK    3  A    between atoms: C_7  and  N_10
REMARK                            x       y       z     vdW  Elec       q    Type
REMARK                         _______ _______ _______ _____ _____    ______ ____
ROOT
ATOM      1  C   UNL     1      35.594  93.563  50.252  0.00  0.00    +0.000 A 
ATOM      2  C   UNL     1      36.301  92.371  50.435  0.00  0.00    +0.000 A 
ATOM      3  C   UNL     1      36.413  91.448  49.386  0.00  0.00    +0.000 A 
ATOM      4  C   UNL     1      35.854  91.719  48.130  0.00  0.00    +0.000 A 
ATOM      5  C   UNL     1      35.138  92.914  47.966  0.00  0.00    +0.000 A 
ATOM      6  C   UNL     1      35.017  93.838  49.010  0.00  0.00    +0.000 A 
ENDROOT
BRANCH   4   7
ATOM      7  N   UNL     1      35.937  90.834  47.043  0.00  0.00    +0.000 N 
ATOM      8  C   UNL     1      35.169  89.754  46.766  0.00  0.00    +0.000 C 
ATOM      9  N   UNL     1      33.906  89.610  46.947  0.00  0.00    +0.000 NA
ATOM     10  N   UNL     1      35.862  88.750  46.182  0.00  0.00    +0.000 N 
ATOM     11  H   UNL     1      36.786  90.903  46.498  0.00  0.00    +0.000 HD
ATOM     12  H   UNL     1      33.539  90.491  47.322  0.00  0.00    +0.000 HD
ATOM     13  H   UNL     1      36.662  88.457  46.729  0.00  0.00    +0.000 HD
ATOM     14  H   UNL     1      35.237  87.959  46.046  0.00  0.00    +0.000 HD
ENDBRANCH   4   7
BRANCH   1  15
ATOM     15  C   UNL     1      35.531  94.529  51.379  0.00  0.00    +0.000 C 
ATOM     16  O   UNL     1      34.493  95.044  51.752  0.00  0.00    +0.000 OA
BRANCH  15  17
ATOM     17  O   UNL     1      36.734  94.805  51.926  0.00  0.00    +0.000 OA
ATOM     18  H   UNL     1      37.483  94.307  51.551  0.00  0.00    +0.000 HD
ENDBRANCH  15  17
ENDBRANCH   1  15
TORSDOF 3
ENDMDL
MODEL 3
REMARK VINA RESULT:    -5.907      9.141     10.072
REMARK INTER + INTRA:          -6.909
REMARK INTER:                  -6.742
REMARK INTRA:                  -0.167
REMARK UNBOUND:                -0.138
REMARK  Name = 
REMARK  3 active torsions:
REMARK  status: ('A' for Active; 'I' for Inactive)
REMARK    1  A    between atoms: O_1  and  C_2
REMARK    2  A    between atoms: C_2  and  C_4
REMARK    3  A    between atoms: C_7  and  N_10
REMARK                            x       y       z     vdW  Elec       q    Type
REMARK                         _______ _______ _______ _____ _____    ______ ____
ROOT
ATOM      1  C   UNL     1      29.773  83.818  50.846  0.00  0.00    +0.000 A 
ATOM      2  C   UNL     1      30.738  84.818  50.688  0.00  0.00    +0.000 A 
ATOM      3  C   UNL     1      31.497  85.246  51.785  0.00  0.00    +0.000 A 
ATOM      4  C   UNL     1      31.334  84.657  53.045  0.00  0.00    +0.000 A 
ATOM      5  C   UNL     1      30.355  83.663  53.190  0.00  0.00    +0.000 A 
ATOM      6  C   UNL     1      29.587  83.234  52.102  0.00  0.00    +0.000 A 
ENDROOT
BRANCH   4   7
ATOM      7  N   UNL     1      32.068  85.044  54.177  0.00  0.00    +0.000 N 
ATOM      8  C   UNL     1      32.209  86.275  54.720  0.00  0.00    +0.000 C 
ATOM      9  N   UNL     1      31.327  87.204  54.822  0.00  0.00    +0.000 NA
ATOM     10  N   UNL     1      33.436  86.482  55.248  0.00  0.00    +0.000 N 
ATOM     11  H   UNL     1      32.718  84.350  54.524  0.00  0.00    +0.000 HD
ATOM     12  H   UNL     1      30.446  86.844  54.441  0.00  0.00    +0.000 HD
ATOM     13  H   UNL     1      34.181  86.326  54.580  0.00  0.00    +0.000 HD
ATOM     14  H   UNL     1      33.485  87.438  55.593  0.00  0.00    +0.000 HD
ENDBRANCH   4   7
BRANCH   1  15
ATOM     15  C   UNL     1      29.015  83.368  49.651  0.00  0.00    +0.000 C 
ATOM     16  O   UNL     1      28.183  84.062  49.095  0.00  0.00    +0.000 OA
BRANCH  15  17
ATOM     17  O   UNL     1      29.313  82.111  49.260  0.00  0.00    +0.000 OA
ATOM     18  H   UNL     1      28.580  81.622  48.846  0.00  0.00    +0.000 HD
ENDBRANCH  15  17
ENDBRANCH   1  15
TORSDOF 3
ENDMDL
MODEL 4
REMARK VINA RESULT:    -5.567      3.818      4.413
REMARK INTER + INTRA:          -6.518
REMARK INTER:                  -6.336
REMARK INTRA:                  -0.182
REMARK UNBOUND:                -0.138
REMARK  Name = 
REMARK  3 active torsions:
REMARK  status: ('A' for Active; 'I' for Inactive)
REMARK    1  A    between atoms: O_1  and  C_2
REMARK    2  A    between atoms: C_2  and  C_4
REMARK    3  A    between atoms: C_7  and  N_10
REMARK                            x       y       z     vdW  Elec       q    Type
REMARK                         _______ _______ _______ _____ _____    ______ ____
ROOT
ATOM      1  C   UNL     1      35.265  93.132  49.351  0.00  0.00    +0.000 A 
ATOM      2  C   UNL     1      35.025  93.821  50.543  0.00  0.00    +0.000 A 
ATOM      3  C   UNL     1      33.944  94.708  50.640  0.00  0.00    +0.000 A 
ATOM      4  C   UNL     1      33.067  94.891  49.564  0.00  0.00    +0.000 A 
ATOM      5  C   UNL     1      33.328  94.200  48.371  0.00  0.00    +0.000 A 
ATOM      6  C   UNL     1      34.408  93.318  48.263  0.00  0.00    +0.000 A 
ENDROOT
BRANCH   4   7
ATOM      7  N   UNL     1      31.967  95.763  49.606  0.00  0.00    +0.000 N 
ATOM      8  C   UNL     1      30.646  95.467  49.590  0.00  0.00    +0.000 C 
ATOM      9  N   UNL     1      30.046  94.483  50.156  0.00  0.00    +0.000 NA
ATOM     10  N   UNL     1      29.909  96.381  48.920  0.00  0.00    +0.000 N 
ATOM     11  H   UNL     1      32.186  96.737  49.445  0.00  0.00    +0.000 HD
ATOM     12  H   UNL     1      30.746  93.945  50.677  0.00  0.00    +0.000 HD
ATOM     13  H   UNL     1      30.230  96.522  47.970  0.00  0.00    +0.000 HD
ATOM     14  H   UNL     1      28.940  96.072  48.908  0.00  0.00    +0.000 HD
ENDBRANCH   4   7
BRANCH   1  15
ATOM     15  C   UNL     1      36.400  92.174  49.302  0.00  0.00    +0.000 C 
ATOM     16  O   UNL     1      37.565  92.526  49.343  0.00  0.00    +0.000 OA
BRANCH  15  17
ATOM     17  O   UNL     1      36.018  90.886  49.177  0.00  0.00    +0.000 OA
ATOM     18  H   UNL     1      36.486  90.381  48.488  0.00  0.00    +0.000 HD
ENDBRANCH  15  17
ENDBRANCH   1  15
TORSDOF 3
ENDMDL
MODEL 5
REMARK VINA RESULT:    -5.554     10.674     11.409
REMARK INTER + INTRA:          -6.504
REMARK INTER:                  -6.340
REMARK INTRA:                  -0.164
REMARK UNBOUND:                -0.138
REMARK  Name = 
REMARK  3 active torsions:
REMARK  status: ('A' for Active; 'I' for Inactive)
REMARK    1  A    between atoms: O_1  and  C_2
REMARK    2  A    between atoms: C_2  and  C_4
REMARK    3  A    between atoms: C_7  and  N_10
REMARK                            x       y       z     vdW  Elec       q    Type
REMARK                         _______ _______ _______ _____ _____    ______ ____
ROOT
ATOM      1  C   UNL     1      27.611  88.221  54.802  0.00  0.00    +0.000 A 
ATOM      2  C   UNL     1      27.339  86.855  54.939  0.00  0.00    +0.000 A 
ATOM      3  C   UNL     1      28.256  85.903  54.476  0.00  0.00    +0.000 A 
ATOM      4  C   UNL     1      29.474  86.296  53.907  0.00  0.00    +0.000 A 
ATOM      5  C   UNL     1      29.727  87.669  53.767  0.00  0.00    +0.000 A 
ATOM      6  C   UNL     1      28.814  88.628  54.220  0.00  0.00    +0.000 A 
ENDROOT
BRANCH   4   7
ATOM      7  N   UNL     1      30.431  85.387  53.429  0.00  0.00    +0.000 N 
ATOM      8  C   UNL     1      31.427  84.768  54.105  0.00  0.00    +0.000 C 
ATOM      9  N   UNL     1      31.406  84.309  55.305  0.00  0.00    +0.000 NA
ATOM     10  N   UNL     1      32.542  84.595  53.361  0.00  0.00    +0.000 N 
ATOM     11  H   UNL     1      30.499  85.325  52.422  0.00  0.00    +0.000 HD
ATOM     12  H   UNL     1      30.465  84.458  55.683  0.00  0.00    +0.000 HD
ATOM     13  H   UNL     1      32.892  85.463  52.974  0.00  0.00    +0.000 HD
ATOM     14  H   UNL     1      33.259  84.170  53.944  0.00  0.00    +0.000 HD
ENDBRANCH   4   7
BRANCH   1  15
ATOM     15  C   UNL     1      26.628  89.196  55.338  0.00  0.00    +0.000 C 
ATOM     16  O   UNL     1      26.873  89.937  56.274  0.00  0.00    +0.000 OA
BRANCH  15  17
ATOM     17  O   UNL     1      25.433  89.163  54.713  0.00  0.00    +0.000 OA
ATOM     18  H   UNL     1      25.415  89.576  53.831  0.00  0.00    +0.000 HD
ENDBRANCH  15  17
ENDBRANCH   1  15
TORSDOF 3
ENDMDL
MODEL 6
REMARK VINA RESULT:    -5.430     11.531     12.510
REMARK INTER + INTRA:          -6.362
REMARK INTER:                  -6.294
REMARK INTRA:                  -0.068
REMARK UNBOUND:                -0.138
REMARK  Name = 
REMARK  3 active torsions:
REMARK  status: ('A' for Active; 'I' for Inactive)
REMARK    1  A    between atoms: O_1  and  C_2
REMARK    2  A    between atoms: C_2  and  C_4
REMARK    3  A    between atoms: C_7  and  N_10
REMARK                            x       y       z     vdW  Elec       q    Type
REMARK                         _______ _______ _______ _____ _____    ______ ____
ROOT
ATOM      1  C   UNL     1      29.318  83.584  51.178  0.00  0.00    +0.000 A 
ATOM      2  C   UNL     1      29.845  83.934  52.425  0.00  0.00    +0.000 A 
ATOM      3  C   UNL     1      29.103  83.711  53.593  0.00  0.00    +0.000 A 
ATOM      4  C   UNL     1      27.844  83.101  53.538  0.00  0.00    +0.000 A 
ATOM      5  C   UNL     1      27.324  82.765  52.278  0.00  0.00    +0.000 A 
ATOM      6  C   UNL     1      28.055  82.991  51.107  0.00  0.00    +0.000 A 
ENDROOT
BRANCH   4   7
ATOM      7  N   UNL     1      27.059  82.850  54.675  0.00  0.00    +0.000 N 
ATOM      8  C   UNL     1      26.948  83.580  55.809  0.00  0.00    +0.000 C 
ATOM      9  N   UNL     1      26.942  84.858  55.934  0.00  0.00    +0.000 NA
ATOM     10  N   UNL     1      26.777  82.817  56.912  0.00  0.00    +0.000 N 
ATOM     11  H   UNL     1      26.668  81.919  54.728  0.00  0.00    +0.000 HD
ATOM     12  H   UNL     1      27.003  85.266  54.995  0.00  0.00    +0.000 HD
ATOM     13  H   UNL     1      27.510  82.129  57.030  0.00  0.00    +0.000 HD
ATOM     14  H   UNL     1      26.749  83.425  57.727  0.00  0.00    +0.000 HD
ENDBRANCH   4   7
BRANCH   1  15
ATOM     15  C   UNL     1      30.151  83.805  49.969  0.00  0.00    +0.000 C 
ATOM     16  O   UNL     1      29.907  84.667  49.144  0.00  0.00    +0.000 OA
BRANCH  15  17
ATOM     17  O   UNL     1      31.183  82.942  49.855  0.00  0.00    +0.000 OA
ATOM     18  H   UNL     1      31.108  82.134  50.394  0.00  0.00    +0.000 HD
ENDBRANCH  15  17
ENDBRANCH   1  15
TORSDOF 3
ENDMDL
MODEL 7
REMARK VINA RESULT:    -5.396     12.005     13.105
REMARK INTER + INTRA:          -6.323
REMARK INTER:                  -6.149
REMARK INTRA:                  -0.174
REMARK UNBOUND:                -0.138
REMARK  Name = 
REMARK  3 active torsions:
REMARK  status: ('A' for Active; 'I' for Inactive)
REMARK    1  A    between atoms: O_1  and  C_2
REMARK    2  A    between atoms: C_2  and  C_4
REMARK    3  A    between atoms: C_7  and  N_10
REMARK                            x       y       z     vdW  Elec       q    Type
REMARK                         _______ _______ _______ _____ _____    ______ ____
ROOT
ATOM      1  C   UNL     1      27.291  84.889  54.351  0.00  0.00    +0.000 A 
ATOM      2  C   UNL     1      26.602  83.985  53.537  0.00  0.00    +0.000 A 
ATOM      3  C   UNL     1      27.270  83.314  52.504  0.00  0.00    +0.000 A 
ATOM      4  C   UNL     1      28.642  83.505  52.294  0.00  0.00    +0.000 A 
ATOM      5  C   UNL     1      29.316  84.423  53.112  0.00  0.00    +0.000 A 
ATOM      6  C   UNL     1      28.656  85.103  54.141  0.00  0.00    +0.000 A 
ENDROOT
BRANCH   4   7
ATOM      7  N   UNL     1      29.363  82.857  51.278  0.00  0.00    +0.000 N 
ATOM      8  C   UNL     1      29.422  83.151  49.958  0.00  0.00    +0.000 C 
ATOM      9  N   UNL     1      29.436  84.309  49.402  0.00  0.00    +0.000 NA
ATOM     10  N   UNL     1      29.526  82.052  49.177  0.00  0.00    +0.000 N 
ATOM     11  H   UNL     1      29.740  81.953  51.530  0.00  0.00    +0.000 HD
ATOM     12  H   UNL     1      29.429  85.014  50.145  0.00  0.00    +0.000 HD
ATOM     13  H   UNL     1      28.780  81.387  49.336  0.00  0.00    +0.000 HD
ATOM     14  H   UNL     1      29.518  82.343  48.203  0.00  0.00    +0.000 HD
ENDBRANCH   4   7
BRANCH   1  15
ATOM     15  C   UNL     1      26.554  85.552  55.457  0.00  0.00    +0.000 C 
ATOM     16  O   UNL     1      26.466  85.075  56.574  0.00  0.00    +0.000 OA
BRANCH  15  17
ATOM     17  O   UNL     1      25.966  86.713  55.098  0.00  0.00    +0.000 OA
ATOM     18  H   UNL     1      25.266  86.632  54.426  0.00  0.00    +0.000 HD
ENDBRANCH  15  17
ENDBRANCH   1  15
TORSDOF 3
ENDMDL
MODEL 8
REMARK VINA RESULT:    -5.386     11.931     12.760
REMARK INTER + INTRA:          -6.311
REMARK INTER:                  -6.228
REMARK INTRA:                  -0.083
REMARK UNBOUND:                -0.138
REMARK  Name = 
REMARK  3 active torsions:
REMARK  status: ('A' for Active; 'I' for Inactive)
REMARK    1  A    between atoms: O_1  and  C_2
REMARK    2  A    between atoms: C_2  and  C_4
REMARK    3  A    between atoms: C_7  and  N_10
REMARK                            x       y       z     vdW  Elec       q    Type
REMARK                         _______ _______ _______ _____ _____    ______ ____
ROOT
ATOM      1  C   UNL     1      26.971  87.751  54.999  0.00  0.00    +0.000 A 
ATOM      2  C   UNL     1      28.327  87.462  54.813  0.00  0.00    +0.000 A 
ATOM      3  C   UNL     1      28.731  86.167  54.462  0.00  0.00    +0.000 A 
ATOM      4  C   UNL     1      27.788  85.153  54.255  0.00  0.00    +0.000 A 
ATOM      5  C   UNL     1      26.433  85.456  54.456  0.00  0.00    +0.000 A 
ATOM      6  C   UNL     1      26.020  86.744  54.813  0.00  0.00    +0.000 A 
ENDROOT
BRANCH   4   7
ATOM      7  N   UNL     1      28.134  83.839  53.900  0.00  0.00    +0.000 N 
ATOM      8  C   UNL     1      28.673  83.385  52.744  0.00  0.00    +0.000 C 
ATOM      9  N   UNL     1      29.556  83.951  52.003  0.00  0.00    +0.000 NA
ATOM     10  N   UNL     1      28.224  82.157  52.400  0.00  0.00    +0.000 N 
ATOM     11  H   UNL     1      27.770  83.120  54.511  0.00  0.00    +0.000 HD
ATOM     12  H   UNL     1      29.832  84.828  52.457  0.00  0.00    +0.000 HD
ATOM     13  H   UNL     1      27.215  82.113  52.336  0.00  0.00    +0.000 HD
ATOM     14  H   UNL     1      28.632  81.901  51.504  0.00  0.00    +0.000 HD
ENDBRANCH   4   7
BRANCH   1  15
ATOM     15  C   UNL     1      26.583  89.145  55.335  0.00  0.00    +0.000 C 
ATOM     16  O   UNL     1      27.281  89.883  56.006  0.00  0.00    +0.000 OA
BRANCH  15  17
ATOM     17  O   UNL     1      25.374  89.503  54.853  0.00  0.00    +0.000 OA
ATOM     18  H   UNL     1      24.907  90.182  55.371  0.00  0.00    +0.000 HD
ENDBRANCH  15  17
ENDBRANCH   1  15
TORSDOF 3
ENDMDL
MODEL 9
REMARK VINA RESULT:    -5.339      3.486      4.300
REMARK INTER + INTRA:          -6.257
REMARK INTER:                  -6.110
REMARK INTRA:                  -0.147
REMARK UNBOUND:                -0.138
REMARK  Name = 
REMARK  3 active torsions:
REMARK  status: ('A' for Active; 'I' for Inactive)
REMARK    1  A    between atoms: O_1  and  C_2
REMARK    2  A    between atoms: C_2  and  C_4
REMARK    3  A    between atoms: C_7  and  N_10
REMARK                            x       y       z     vdW  Elec       q    Type
REMARK                         _______ _______ _______ _____ _____    ______ ____
ROOT
ATOM      1  C   UNL     1      37.077  91.561  50.898  0.00  0.00    +0.000 A 
ATOM      2  C   UNL     1      37.099  91.741  49.512  0.00  0.00    +0.000 A 
ATOM      3  C   UNL     1      36.188  92.611  48.898  0.00  0.00    +0.000 A 
ATOM      4  C   UNL     1      35.268  93.342  49.660  0.00  0.00    +0.000 A 
ATOM      5  C   UNL     1      35.251  93.142  51.049  0.00  0.00    +0.000 A 
ATOM      6  C   UNL     1      36.153  92.271  51.670  0.00  0.00    +0.000 A 
ENDROOT
BRANCH   4   7
ATOM      7  N   UNL     1      34.335  94.229  49.099  0.00  0.00    +0.000 N 
ATOM      8  C   UNL     1      33.069  93.984  48.690  0.00  0.00    +0.000 C 
ATOM      9  N   UNL     1      32.196  93.209  49.228  0.00  0.00    +0.000 NA
ATOM     10  N   UNL     1      32.716  94.707  47.604  0.00  0.00    +0.000 N 
ATOM     11  H   UNL     1      34.716  95.116  48.797  0.00  0.00    +0.000 HD
ATOM     12  H   UNL     1      32.611  92.809  50.075  0.00  0.00    +0.000 HD
ATOM     13  H   UNL     1      33.348  94.576  46.824  0.00  0.00    +0.000 HD
ATOM     14  H   UNL     1      31.775  94.439  47.326  0.00  0.00    +0.000 HD
ENDBRANCH   4   7
BRANCH   1  15
ATOM     15  C   UNL     1      38.083  90.658  51.512  0.00  0.00    +0.000 C 
ATOM     16  O   UNL     1      38.937  91.048  52.289  0.00  0.00    +0.000 OA
BRANCH  15  17
ATOM     17  O   UNL     1      37.982  89.376  51.105  0.00  0.00    +0.000 OA
ATOM     18  H   UNL     1      37.964  89.248  50.140  0.00  0.00    +0.000 HD
ENDBRANCH  15  17
ENDBRANCH   1  15
TORSDOF 3
ENDMDL
