MODEL 1
REMARK VINA RESULT:    -5.588      0.000      0.000
REMARK INTER + INTRA:          -6.620
REMARK INTER:                  -6.568
REMARK INTRA:                  -0.052
REMARK UNBOUND:                -0.052
REMARK  Name = 
REMARK  5 active torsions:
REMARK  status: ('A' for Active; 'I' for Inactive)
REMARK    1  A    between atoms: O_1  and  C_2
REMARK    2  A    between atoms: C_2  and  C_4
REMARK    3  A    between atoms: C_6  and  O_7
REMARK    4  A    between atoms: C_8  and  O_9
REMARK    5  A    between atoms: C_10  and  O_11
REMARK                            x       y       z     vdW  Elec       q    Type
REMARK                         _______ _______ _______ _____ _____    ______ ____
ROOT
ATOM      1  C   UNL     1      30.651  83.999  52.449  0.00  0.00    +0.000 A 
ATOM      2  C   UNL     1      31.095  84.555  51.236  0.00  0.00    +0.000 A 
ATOM      3  C   UNL     1      30.305  84.426  50.099  0.00  0.00    +0.000 A 
ATOM      4  C   UNL     1      29.088  83.757  50.167  0.00  0.00    +0.000 A 
ATOM      5  C   UNL     1      28.646  83.226  51.372  0.00  0.00    +0.000 A 
ATOM      6  C   UNL     1      29.412  83.349  52.524  0.00  0.00    +0.000 A 
ENDROOT
BRANCH   1   7
ATOM      7  C   UNL     1      31.521  84.153  53.640  0.00  0.00    +0.000 C 
ATOM      8  O   UNL     1      31.104  84.575  54.705  0.00  0.00    +0.000 OA
BRANCH   7   9
ATOM      9  O   UNL     1      32.816  83.849  53.417  0.00  0.00    +0.000 OA
ATOM     10  H   UNL     1      33.143  83.046  53.863  0.00  0.00    +0.000 HD
ENDBRANCH   7   9
ENDBRANCH   1   7
BRANCH   3  11
ATOM     11  O   UNL     1      30.682  84.937  48.889  0.00  0.00    +0.000 OA
ATOM     12  H   UNL     1      30.144  84.517  48.194  0.00  0.00    +0.000 HD
ENDBRANCH   3  11
BRANCH   4  13
ATOM     13  O   UNL     1      28.304  83.620  49.056  0.00  0.00    +0.000 OA
ATOM     14  H   UNL     1      27.910  84.507  48.925  0.00  0.00    +0.000 HD
ENDBRANCH   4  13
BRANCH   5  15
ATOM     15  O   UNL     1      27.448  82.576  51.438  0.00  0.00    +0.000 OA
ATOM     16  H   UNL     1      27.473  82.092  52.289  0.00  0.00    +0.000 HD
ENDBRANCH   5  15
TORSDOF 5
ENDMDL
MODEL 2
REMARK VINA RESULT:    -5.583      0.055      2.391
REMARK INTER + INTRA:          -6.614
REMARK INTER:                  -6.562
REMARK INTRA:                  -0.052
REMARK UNBOUND:                -0.052
REMARK  Name = 
REMARK  5 active torsions:
REMARK  status: ('A' for Active; 'I' for Inactive)
REMARK    1  A    between atoms: O_1  and  C_2
REMARK    2  A    between atoms: C_2  and  C_4
REMARK    3  A    between atoms: C_6  and  O_7
REMARK    4  A    between atoms: C_8  and  O_9
REMARK    5  A    between atoms: C_10  and  O_11
REMARK                            x       y       z     vdW  Elec       q    Type
REMARK                         _______ _______ _______ _____ _____    ______ ____
ROOT
ATOM      1  C   UNL     1      30.674  84.001  52.413  0.00  0.00    +0.000 A 
ATOM      2  C   UNL     1      29.451  83.314  52.520  0.00  0.00    +0.000 A 
ATOM      3  C   UNL     1      28.637  83.196  51.398  0.00  0.00    +0.000 A 
ATOM      4  C   UNL     1      29.035  83.749  50.186  0.00  0.00    +0.000 A 
ATOM      5  C   UNL     1      30.252  84.410  50.082  0.00  0.00    +0.000 A 
ATOM      6  C   UNL     1      31.088  84.533  51.184  0.00  0.00    +0.000 A 
ENDROOT
BRANCH   1   7
ATOM      7  C   UNL     1      31.514  84.110  53.629  0.00  0.00    +0.000 C 
ATOM      8  O   UNL     1      31.067  84.476  54.703  0.00  0.00    +0.000 OA
BRANCH   7   9
ATOM      9  O   UNL     1      32.817  83.831  53.424  0.00  0.00    +0.000 OA
ATOM     10  H   UNL     1      33.037  83.464  52.548  0.00  0.00    +0.000 HD
ENDBRANCH   7   9
ENDBRANCH   1   7
BRANCH   3  11
ATOM     11  O   UNL     1      27.434  82.549  51.437  0.00  0.00    +0.000 OA
ATOM     12  H   UNL     1      27.582  81.607  51.235  0.00  0.00    +0.000 HD
ENDBRANCH   3  11
BRANCH   4  13
ATOM     13  O   UNL     1      28.242  83.643  49.078  0.00  0.00    +0.000 OA
ATOM     14  H   UNL     1      27.533  83.020  49.343  0.00  0.00    +0.000 HD
ENDBRANCH   4  13
BRANCH   5  15
ATOM     15  O   UNL     1      30.643  84.945  48.889  0.00  0.00    +0.000 OA
ATOM     16  H   UNL     1      30.066  85.726  48.764  0.00  0.00    +0.000 HD
ENDBRANCH   5  15
TORSDOF 5
ENDMDL
MODEL 3
REMARK VINA RESULT:    -5.381      9.289     11.175
REMARK INTER + INTRA:          -6.376
REMARK INTER:                  -6.326
REMARK INTRA:                  -0.050
REMARK UNBOUND:                -0.052
REMARK  Name = 
REMARK  5 active torsions:
REMARK  status: ('A' for Active; 'I' for Inactive)
REMARK    1  A    between atoms: O_1  and  C_2
REMARK    2  A    between atoms: C_2  and  C_4
REMARK    3  A    between atoms: C_6  and  O_7
REMARK    4  A    between atoms: C_8  and  O_9
REMARK    5  A    between atoms: C_10  and  O_11
REMARK                            x       y       z     vdW  Elec       q    Type
REMARK                         _______ _______ _______ _____ _____    ______ ____
ROOT
ATOM      1  C   UNL     1      35.680  91.046  47.679  0.00  0.00    +0.000 A 
ATOM      2  C   UNL     1      34.911  92.224  47.647  0.00  0.00    +0.000 A 
ATOM      3  C   UNL     1      35.239  93.274  48.498  0.00  0.00    +0.000 A 
ATOM      4  C   UNL     1      36.320  93.157  49.365  0.00  0.00    +0.000 A 
ATOM      5  C   UNL     1      37.087  91.999  49.378  0.00  0.00    +0.000 A 
ATOM      6  C   UNL     1      36.786  90.940  48.532  0.00  0.00    +0.000 A 
ENDROOT
BRANCH   1   7
ATOM      7  C   UNL     1      35.298  89.947  46.760  0.00  0.00    +0.000 C 
ATOM      8  O   UNL     1      36.053  89.518  45.904  0.00  0.00    +0.000 OA
BRANCH   7   9
ATOM      9  O   UNL     1      34.030  89.517  46.915  0.00  0.00    +0.000 OA
ATOM     10  H   UNL     1      33.351  90.215  46.965  0.00  0.00    +0.000 HD
ENDBRANCH   7   9
ENDBRANCH   1   7
BRANCH   3  11
ATOM     11  O   UNL     1      34.528  94.440  48.522  0.00  0.00    +0.000 OA
ATOM     12  H   UNL     1      33.600  94.243  48.300  0.00  0.00    +0.000 HD
ENDBRANCH   3  11
BRANCH   4  13
ATOM     13  O   UNL     1      36.650  94.180  50.209  0.00  0.00    +0.000 OA
ATOM     14  H   UNL     1      37.334  94.687  49.723  0.00  0.00    +0.000 HD
ENDBRANCH   4  13
BRANCH   5  15
ATOM     15  O   UNL     1      38.151  91.890  50.225  0.00  0.00    +0.000 OA
ATOM     16  H   UNL     1      38.011  91.042  50.695  0.00  0.00    +0.000 HD
ENDBRANCH   5  15
TORSDOF 5
ENDMDL
MODEL 4
REMARK VINA RESULT:    -5.356      1.118      2.670
REMARK INTER + INTRA:          -6.347
REMARK INTER:                  -6.296
REMARK INTRA:                  -0.052
REMARK UNBOUND:                -0.052
REMARK  Name = 
REMARK  5 active torsions:
REMARK  status: ('A' for Active; 'I' for Inactive)
REMARK    1  A    between atoms: O_1  and  C_2
REMARK    2  A    between atoms: C_2  and  C_4
REMARK    3  A    between atoms: C_6  and  O_7
REMARK    4  A    between atoms: C_8  and  O_9
REMARK    5  A    between atoms: C_10  and  O_11
REMARK                            x       y       z     vdW  Elec       q    Type
REMARK                         _______ _______ _______ _____ _____    ______ ____
ROOT
ATOM      1  C   UNL     1      30.634  84.851  52.995  0.00  0.00    +0.000 A 
ATOM      2  C   UNL     1      29.685  83.827  52.826  0.00  0.00    +0.000 A 
ATOM      3  C   UNL     1      29.299  83.463  51.540  0.00  0.00    +0.000 A 
ATOM      4  C   UNL     1      29.851  84.105  50.437  0.00  0.00    +0.000 A 
ATOM      5  C   UNL     1      30.801  85.104  50.610  0.00  0.00    +0.000 A 
ATOM      6  C   UNL     1      31.211  85.479  51.883  0.00  0.00    +0.000 A 
ENDROOT
BRANCH   1   7
ATOM      7  C   UNL     1      31.020  85.214  54.379  0.00  0.00    +0.000 C 
ATOM      8  O   UNL     1      31.075  86.371  54.761  0.00  0.00    +0.000 OA
BRANCH   7   9
ATOM      9  O   UNL     1      31.363  84.161  55.148  0.00  0.00    +0.000 OA
ATOM     10  H   UNL     1      30.684  83.467  55.239  0.00  0.00    +0.000 HD
ENDBRANCH   7   9
ENDBRANCH   1   7
BRANCH   3  11
ATOM     11  O   UNL     1      28.377  82.482  51.308  0.00  0.00    +0.000 OA
ATOM     12  H   UNL     1      28.849  81.661  51.077  0.00  0.00    +0.000 HD
ENDBRANCH   3  11
BRANCH   4  13
ATOM     13  O   UNL     1      29.476  83.760  49.169  0.00  0.00    +0.000 OA
ATOM     14  H   UNL     1      29.622  84.573  48.642  0.00  0.00    +0.000 HD
ENDBRANCH   4  13
BRANCH   5  15
ATOM     15  O   UNL     1      31.346  85.727  49.526  0.00  0.00    +0.000 OA
ATOM     16  H   UNL     1      31.148  86.677  49.658  0.00  0.00    +0.000 HD
ENDBRANCH   5  15
TORSDOF 5
ENDMDL
MODEL 5
REMARK VINA RESULT:    -5.323      1.210      3.988
REMARK INTER + INTRA:          -6.308
REMARK INTER:                  -6.249
REMARK INTRA:                  -0.059
REMARK UNBOUND:                -0.052
REMARK  Name = 
REMARK  5 active torsions:
REMARK  status: ('A' for Active; 'I' for Inactive)
REMARK    1  A    between atoms: O_1  and  C_2
REMARK    2  A    between atoms: C_2  and  C_4
REMARK    3  A    between atoms: C_6  and  O_7
REMARK    4  A    between atoms: C_8  and  O_9
REMARK    5  A    between atoms: C_10  and  O_11
REMARK                            x       y       z     vdW  Elec       q    Type
REMARK                         _______ _______ _______ _____ _____    ______ ____
ROOT
ATOM      1  C   UNL     1      29.622  83.747  51.070  0.00  0.00    +0.000 A 
ATOM      2  C   UNL     1      30.947  83.818  51.538  0.00  0.00    +0.000 A 
ATOM      3  C   UNL     1      31.220  83.489  52.861  0.00  0.00    +0.000 A 
ATOM      4  C   UNL     1      30.191  83.089  53.707  0.00  0.00    +0.000 A 
ATOM      5  C   UNL     1      28.887  83.003  53.234  0.00  0.00    +0.000 A 
ATOM      6  C   UNL     1      28.590  83.318  51.915  0.00  0.00    +0.000 A 
ENDROOT
BRANCH   1   7
ATOM      7  C   UNL     1      29.368  84.109  49.655  0.00  0.00    +0.000 C 
ATOM      8  O   UNL     1      28.306  83.879  49.101  0.00  0.00    +0.000 OA
BRANCH   7   9
ATOM      9  O   UNL     1      30.432  84.650  49.027  0.00  0.00    +0.000 OA
ATOM     10  H   UNL     1      30.441  85.623  48.976  0.00  0.00    +0.000 HD
ENDBRANCH   7   9
ENDBRANCH   1   7
BRANCH   3  11
ATOM     11  O   UNL     1      32.483  83.545  53.379  0.00  0.00    +0.000 OA
ATOM     12  H   UNL     1      33.039  84.080  52.784  0.00  0.00    +0.000 HD
ENDBRANCH   3  11
BRANCH   4  13
ATOM     13  O   UNL     1      30.446  82.767  55.010  0.00  0.00    +0.000 OA
ATOM     14  H   UNL     1      30.906  83.553  55.370  0.00  0.00    +0.000 HD
ENDBRANCH   4  13
BRANCH   5  15
ATOM     15  O   UNL     1      27.881  82.604  54.065  0.00  0.00    +0.000 OA
ATOM     16  H   UNL     1      27.556  81.765  53.677  0.00  0.00    +0.000 HD
ENDBRANCH   5  15
TORSDOF 5
ENDMDL
MODEL 6
REMARK VINA RESULT:    -5.237      1.481      2.461
REMARK INTER + INTRA:          -6.207
REMARK INTER:                  -6.155
REMARK INTRA:                  -0.052
REMARK UNBOUND:                -0.052
REMARK  Name = 
REMARK  5 active torsions:
REMARK  status: ('A' for Active; 'I' for Inactive)
REMARK    1  A    between atoms: O_1  and  C_2
REMARK    2  A    between atoms: C_2  and  C_4
REMARK    3  A    between atoms: C_6  and  O_7
REMARK    4  A    between atoms: C_8  and  O_9
REMARK    5  A    between atoms: C_10  and  O_11
REMARK                            x       y       z     vdW  Elec       q    Type
REMARK                         _______ _______ _______ _____ _____    ______ ____
ROOT
ATOM      1  C   UNL     1      29.181  83.558  52.523  0.00  0.00    +0.000 A 
ATOM      2  C   UNL     1      30.333  84.358  52.423  0.00  0.00    +0.000 A 
ATOM      3  C   UNL     1      30.768  84.772  51.168  0.00  0.00    +0.000 A 
ATOM      4  C   UNL     1      30.064  84.400  50.029  0.00  0.00    +0.000 A 
ATOM      5  C   UNL     1      28.916  83.625  50.135  0.00  0.00    +0.000 A 
ATOM      6  C   UNL     1      28.456  83.206  51.376  0.00  0.00    +0.000 A 
ENDROOT
BRANCH   1   7
ATOM      7  C   UNL     1      28.749  83.133  53.876  0.00  0.00    +0.000 C 
ATOM      8  O   UNL     1      28.425  81.985  54.129  0.00  0.00    +0.000 OA
BRANCH   7   9
ATOM      9  O   UNL     1      28.686  84.138  54.773  0.00  0.00    +0.000 OA
ATOM     10  H   UNL     1      27.851  84.640  54.786  0.00  0.00    +0.000 HD
ENDBRANCH   7   9
ENDBRANCH   1   7
BRANCH   3  11
ATOM     11  O   UNL     1      31.883  85.543  51.003  0.00  0.00    +0.000 OA
ATOM     12  H   UNL     1      32.050  86.029  51.831  0.00  0.00    +0.000 HD
ENDBRANCH   3  11
BRANCH   4  13
ATOM     13  O   UNL     1      30.483  84.796  48.790  0.00  0.00    +0.000 OA
ATOM     14  H   UNL     1      30.983  84.028  48.444  0.00  0.00    +0.000 HD
ENDBRANCH   4  13
BRANCH   5  15
ATOM     15  O   UNL     1      28.223  83.267  49.015  0.00  0.00    +0.000 OA
ATOM     16  H   UNL     1      27.377  82.904  49.350  0.00  0.00    +0.000 HD
ENDBRANCH   5  15
TORSDOF 5
ENDMDL
MODEL 7
REMARK VINA RESULT:    -5.215      1.567      4.205
REMARK INTER + INTRA:          -6.181
REMARK INTER:                  -6.126
REMARK INTRA:                  -0.055
REMARK UNBOUND:                -0.052
REMARK  Name = 
REMARK  5 active torsions:
REMARK  status: ('A' for Active; 'I' for Inactive)
REMARK    1  A    between atoms: O_1  and  C_2
REMARK    2  A    between atoms: C_2  and  C_4
REMARK    3  A    between atoms: C_6  and  O_7
REMARK    4  A    between atoms: C_8  and  O_9
REMARK    5  A    between atoms: C_10  and  O_11
REMARK                            x       y       z     vdW  Elec       q    Type
REMARK                         _______ _______ _______ _____ _____    ______ ____
ROOT
ATOM      1  C   UNL     1      30.534  84.309  51.376  0.00  0.00    +0.000 A 
ATOM      2  C   UNL     1      31.289  85.486  51.535  0.00  0.00    +0.000 A 
ATOM      3  C   UNL     1      31.681  85.874  52.812  0.00  0.00    +0.000 A 
ATOM      4  C   UNL     1      31.333  85.101  53.914  0.00  0.00    +0.000 A 
ATOM      5  C   UNL     1      30.603  83.931  53.748  0.00  0.00    +0.000 A 
ATOM      6  C   UNL     1      30.207  83.516  52.483  0.00  0.00    +0.000 A 
ENDROOT
BRANCH   1   7
ATOM      7  C   UNL     1      30.130  83.929  50.001  0.00  0.00    +0.000 C 
ATOM      8  O   UNL     1      29.903  84.755  49.133  0.00  0.00    +0.000 OA
BRANCH   7   9
ATOM      9  O   UNL     1      29.976  82.601  49.821  0.00  0.00    +0.000 OA
ATOM     10  H   UNL     1      29.826  82.315  48.901  0.00  0.00    +0.000 HD
ENDBRANCH   7   9
ENDBRANCH   1   7
BRANCH   3  11
ATOM     11  O   UNL     1      32.409  87.008  53.036  0.00  0.00    +0.000 OA
ATOM     12  H   UNL     1      33.282  86.753  53.385  0.00  0.00    +0.000 HD
ENDBRANCH   3  11
BRANCH   4  13
ATOM     13  O   UNL     1      31.709  85.474  55.174  0.00  0.00    +0.000 OA
ATOM     14  H   UNL     1      32.529  85.994  55.040  0.00  0.00    +0.000 HD
ENDBRANCH   4  13
BRANCH   5  15
ATOM     15  O   UNL     1      30.269  83.171  54.830  0.00  0.00    +0.000 OA
ATOM     16  H   UNL     1      30.272  83.795  55.585  0.00  0.00    +0.000 HD
ENDBRANCH   5  15
TORSDOF 5
ENDMDL
MODEL 8
REMARK VINA RESULT:    -5.214      1.431      3.078
REMARK INTER + INTRA:          -6.180
REMARK INTER:                  -6.123
REMARK INTRA:                  -0.057
REMARK UNBOUND:                -0.052
REMARK  Name = 
REMARK  5 active torsions:
REMARK  status: ('A' for Active; 'I' for Inactive)
REMARK    1  A    between atoms: O_1  and  C_2
REMARK    2  A    between atoms: C_2  and  C_4
REMARK    3  A    between atoms: C_6  and  O_7
REMARK    4  A    between atoms: C_8  and  O_9
REMARK    5  A    between atoms: C_10  and  O_11
REMARK                            x       y       z     vdW  Elec       q    Type
REMARK                         _______ _______ _______ _____ _____    ______ ____
ROOT
ATOM      1  C   UNL     1      29.003  83.597  52.445  0.00  0.00    +0.000 A 
ATOM      2  C   UNL     1      28.337  83.239  51.258  0.00  0.00    +0.000 A 
ATOM      3  C   UNL     1      28.854  83.654  50.036  0.00  0.00    +0.000 A 
ATOM      4  C   UNL     1      30.020  84.410  49.992  0.00  0.00    +0.000 A 
ATOM      5  C   UNL     1      30.683  84.745  51.166  0.00  0.00    +0.000 A 
ATOM      6  C   UNL     1      30.193  84.336  52.399  0.00  0.00    +0.000 A 
ENDROOT
BRANCH   1   7
ATOM      7  C   UNL     1      28.421  83.140  53.729  0.00  0.00    +0.000 C 
ATOM      8  O   UNL     1      27.548  82.290  53.786  0.00  0.00    +0.000 OA
BRANCH   7   9
ATOM      9  O   UNL     1      28.895  83.791  54.810  0.00  0.00    +0.000 OA
ATOM     10  H   UNL     1      28.817  84.763  54.785  0.00  0.00    +0.000 HD
ENDBRANCH   7   9
ENDBRANCH   1   7
BRANCH   3  11
ATOM     11  O   UNL     1      28.252  83.346  48.849  0.00  0.00    +0.000 OA
ATOM     12  H   UNL     1      27.864  84.159  48.478  0.00  0.00    +0.000 HD
ENDBRANCH   3  11
BRANCH   4  13
ATOM     13  O   UNL     1      30.536  84.828  48.798  0.00  0.00    +0.000 OA
ATOM     14  H   UNL     1      29.875  85.464  48.455  0.00  0.00    +0.000 HD
ENDBRANCH   4  13
BRANCH   5  15
ATOM     15  O   UNL     1      31.831  85.482  51.120  0.00  0.00    +0.000 OA
ATOM     16  H   UNL     1      32.113  85.564  52.055  0.00  0.00    +0.000 HD
ENDBRANCH   5  15
TORSDOF 5
ENDMDL
MODEL 9
REMARK VINA RESULT:    -5.212      1.521      4.778
REMARK INTER + INTRA:          -6.178
REMARK INTER:                  -6.123
REMARK INTRA:                  -0.055
REMARK UNBOUND:                -0.052
REMARK  Name = 
REMARK  5 active torsions:
REMARK  status: ('A' for Active; 'I' for Inactive)
REMARK    1  A    between atoms: O_1  and  C_2
REMARK    2  A    between atoms: C_2  and  C_4
REMARK    3  A    between atoms: C_6  and  O_7
REMARK    4  A    between atoms: C_8  and  O_9
REMARK    5  A    between atoms: C_10  and  O_11
REMARK                            x       y       z     vdW  Elec       q    Type
REMARK                         _______ _______ _______ _____ _____    ______ ____
ROOT
ATOM      1  C   UNL     1      30.511  84.310  51.350  0.00  0.00    +0.000 A 
ATOM      2  C   UNL     1      30.083  83.533  52.442  0.00  0.00    +0.000 A 
ATOM      3  C   UNL     1      30.482  83.887  53.727  0.00  0.00    +0.000 A 
ATOM      4  C   UNL     1      31.291  85.000  53.924  0.00  0.00    +0.000 A 
ATOM      5  C   UNL     1      31.696  85.774  52.844  0.00  0.00    +0.000 A 
ATOM      6  C   UNL     1      31.304  85.448  51.552  0.00  0.00    +0.000 A 
ENDROOT
BRANCH   1   7
ATOM      7  C   UNL     1      30.069  83.902  49.996  0.00  0.00    +0.000 C 
ATOM      8  O   UNL     1      29.804  84.710  49.122  0.00  0.00    +0.000 OA
BRANCH   7   9
ATOM      9  O   UNL     1      29.924  82.570  49.844  0.00  0.00    +0.000 OA
ATOM     10  H   UNL     1      30.332  82.190  49.043  0.00  0.00    +0.000 HD
ENDBRANCH   7   9
ENDBRANCH   1   7
BRANCH   3  11
ATOM     11  O   UNL     1      30.108  83.170  54.828  0.00  0.00    +0.000 OA
ATOM     12  H   UNL     1      29.194  83.415  55.062  0.00  0.00    +0.000 HD
ENDBRANCH   3  11
BRANCH   4  13
ATOM     13  O   UNL     1      31.694  85.355  55.181  0.00  0.00    +0.000 OA
ATOM     14  H   UNL     1      32.427  85.988  55.032  0.00  0.00    +0.000 HD
ENDBRANCH   4  13
BRANCH   5  15
ATOM     15  O   UNL     1      32.484  86.870  53.041  0.00  0.00    +0.000 OA
ATOM     16  H   UNL     1      32.537  87.301  52.163  0.00  0.00    +0.000 HD
ENDBRANCH   5  15
TORSDOF 5
ENDMDL
