MODEL 1
REMARK VINA RESULT:    -9.684      0.000      0.000
REMARK INTER + INTRA:         -19.085
REMARK INTER:                 -16.194
REMARK INTRA:                  -2.892
REMARK UNBOUND:                -2.892
REMARK  Name = 
REMARK  14 active torsions:
REMARK  status: ('A' for Active; 'I' for Inactive)
REMARK    1  A    between atoms: C_1  and  O_2
REMARK    2  A    between atoms: O_2  and  C_3
REMARK    3  A    between atoms: C_5  and  O_45
REMARK    4  A    between atoms: C_8  and  C_9
REMARK    5  A    between atoms: C_14  and  S_38
REMARK    6  A    between atoms: C_15  and  N_19
REMARK    7  A    between atoms: N_19  and  C_20
REMARK    8  A    between atoms: C_22  and  O_29
REMARK    9  A    between atoms: C_24  and  C_26
REMARK   10  A    between atoms: C_26  and  O_28
REMARK   11  A    between atoms: O_29  and  C_30
REMARK   12  A    between atoms: S_38  and  N_41
REMARK   13  A    between atoms: N_41  and  C_42
REMARK   14  A    between atoms: O_45  and  C_46
REMARK                            x       y       z     vdW  Elec       q    Type
REMARK                         _______ _______ _______ _____ _____    ______ ____
ROOT
ATOM      1  C   UNL     1      29.053  91.250  54.153  0.00  0.00    +0.000 A 
ATOM      2  C   UNL     1      27.752  90.758  54.370  0.00  0.00    +0.000 A 
ATOM      3  C   UNL     1      27.461  89.398  54.477  0.00  0.00    +0.000 A 
ATOM      4  N   UNL     1      26.186  89.038  54.677  0.00  0.00    +0.000 NA
ATOM      5  C   UNL     1      25.899  87.725  54.819  0.00  0.00    +0.000 A 
ATOM      6  C   UNL     1      26.847  86.726  54.737  0.00  0.00    +0.000 A 
ATOM      7  C   UNL     1      28.191  87.070  54.528  0.00  0.00    +0.000 A 
ATOM      8  C   UNL     1      28.507  88.456  54.386  0.00  0.00    +0.000 A 
ATOM      9  C   UNL     1      29.816  88.948  54.216  0.00  0.00    +0.000 A 
ATOM     10  C   UNL     1      30.079  90.308  54.069  0.00  0.00    +0.000 A 
ENDROOT
BRANCH   1  16
ATOM     11  C   UNL     1      29.714  93.579  54.968  0.00  0.00    +0.000 A 
ATOM     12  N   UNL     1      30.044  94.868  54.757  0.00  0.00    +0.000 NA
ATOM     13  C   UNL     1      29.947  95.304  53.500  0.00  0.00    +0.000 A 
ATOM     14  N   UNL     1      29.567  94.566  52.450  0.00  0.00    +0.000 NA
ATOM     15  C   UNL     1      29.274  93.277  52.715  0.00  0.00    +0.000 A 
ATOM     16  C   UNL     1      29.329  92.687  53.967  0.00  0.00    +0.000 A 
BRANCH  11  18
ATOM     17  C   UNL     1      31.049  92.993  56.822  0.00  0.00    +0.000 C 
ATOM     18  O   UNL     1      29.737  93.119  56.275  0.00  0.00    +0.000 OA
ENDBRANCH  11  18
BRANCH  13  19
ATOM     19  O   UNL     1      30.276  96.630  53.329  0.00  0.00    +0.000 OA
ATOM     20  C   UNL     1      29.701  97.192  52.159  0.00  0.00    +0.000 C 
ENDBRANCH  13  19
ENDBRANCH   1  16
BRANCH   6  21
ATOM     21  S   UNL     1      26.312  85.076  55.014  0.00  0.00    +0.000 S 
ATOM     22  O   UNL     1      27.270  84.465  55.914  0.00  0.00    +0.000 OA
ATOM     23  O   UNL     1      24.898  85.078  55.322  0.00  0.00    +0.000 OA
BRANCH  21  24
ATOM     24  N   UNL     1      26.522  84.306  53.531  0.00  0.00    +0.000 NA
ATOM     25  H   UNL     1      26.554  84.979  52.763  0.00  0.00    +0.000 HD
BRANCH  24  26
ATOM     26  C   UNL     1      27.420  83.160  53.459  0.00  0.00    +0.000 C 
ATOM     27  C   UNL     1      27.618  82.447  52.150  0.00  0.00    +0.000 C 
ATOM     28  C   UNL     1      26.863  81.778  53.260  0.00  0.00    +0.000 C 
ENDBRANCH  24  26
ENDBRANCH  21  24
ENDBRANCH   6  21
BRANCH   7  29
ATOM     29  N   UNL     1      29.187  86.065  54.459  0.00  0.00    +0.000 N 
ATOM     30  H   UNL     1      28.980  85.251  55.048  0.00  0.00    +0.000 HD
BRANCH  29  31
ATOM     31  C   UNL     1      30.249  85.836  53.561  0.00  0.00    +0.000 A 
ATOM     32  C   UNL     1      31.601  86.040  53.874  0.00  0.00    +0.000 A 
ATOM     33  C   UNL     1      32.608  85.732  52.948  0.00  0.00    +0.000 A 
ATOM     34  C   UNL     1      32.269  85.264  51.676  0.00  0.00    +0.000 A 
ATOM     35  C   UNL     1      30.936  84.977  51.380  0.00  0.00    +0.000 A 
ATOM     36  C   UNL     1      29.937  85.266  52.318  0.00  0.00    +0.000 A 
BRANCH  35  37
ATOM     37  C   UNL     1      30.530  84.399  50.077  0.00  0.00    +0.000 C 
ATOM     38  O   UNL     1      29.480  84.693  49.532  0.00  0.00    +0.000 OA
BRANCH  37  39
ATOM     39  O   UNL     1      31.396  83.497  49.571  0.00  0.00    +0.000 OA
ATOM     40  H   UNL     1      31.301  83.292  48.623  0.00  0.00    +0.000 HD
ENDBRANCH  37  39
ENDBRANCH  35  37
BRANCH  33  41
ATOM     41  O   UNL     1      33.913  85.951  53.350  0.00  0.00    +0.000 OA
BRANCH  41  42
ATOM     42  C   UNL     1      34.293  87.239  53.670  0.00  0.00    +0.000 A 
ATOM     43  C   UNL     1      35.366  87.390  54.549  0.00  0.00    +0.000 A 
ATOM     44  C   UNL     1      35.757  88.670  54.938  0.00  0.00    +0.000 A 
ATOM     45  C   UNL     1      35.104  89.799  54.464  0.00  0.00    +0.000 A 
ATOM     46  C   UNL     1      34.065  89.636  53.558  0.00  0.00    +0.000 A 
ATOM     47  C   UNL     1      33.671  88.371  53.133  0.00  0.00    +0.000 A 
ATOM     48  F   UNL     1      33.411  90.712  53.101  0.00  0.00    +0.000 F 
ATOM     49  F   UNL     1      36.773  88.813  55.798  0.00  0.00    +0.000 F 
ENDBRANCH  41  42
ENDBRANCH  33  41
ENDBRANCH  29  31
ENDBRANCH   7  29
TORSDOF 12
ENDMDL
MODEL 2
REMARK VINA RESULT:    -9.311      3.746      8.721
REMARK INTER + INTRA:         -18.462
REMARK INTER:                 -15.801
REMARK INTRA:                  -2.661
REMARK UNBOUND:                -2.892
REMARK  Name = 
REMARK  14 active torsions:
REMARK  status: ('A' for Active; 'I' for Inactive)
REMARK    1  A    between atoms: C_1  and  O_2
REMARK    2  A    between atoms: O_2  and  C_3
REMARK    3  A    between atoms: C_5  and  O_45
REMARK    4  A    between atoms: C_8  and  C_9
REMARK    5  A    between atoms: C_14  and  S_38
REMARK    6  A    between atoms: C_15  and  N_19
REMARK    7  A    between atoms: N_19  and  C_20
REMARK    8  A    between atoms: C_22  and  O_29
REMARK    9  A    between atoms: C_24  and  C_26
REMARK   10  A    between atoms: C_26  and  O_28
REMARK   11  A    between atoms: O_29  and  C_30
REMARK   12  A    between atoms: S_38  and  N_41
REMARK   13  A    between atoms: N_41  and  C_42
REMARK   14  A    between atoms: O_45  and  C_46
REMARK                            x       y       z     vdW  Elec       q    Type
REMARK                         _______ _______ _______ _____ _____    ______ ____
ROOT
ATOM      1  C   UNL     1      30.266  86.710  53.716  0.00  0.00    +0.000 A 
ATOM      2  C   UNL     1      29.486  87.880  53.679  0.00  0.00    +0.000 A 
ATOM      3  C   UNL     1      30.007  89.151  53.927  0.00  0.00    +0.000 A 
ATOM      4  N   UNL     1      29.173  90.198  53.872  0.00  0.00    +0.000 NA
ATOM      5  C   UNL     1      29.677  91.436  54.074  0.00  0.00    +0.000 A 
ATOM      6  C   UNL     1      31.003  91.681  54.366  0.00  0.00    +0.000 A 
ATOM      7  C   UNL     1      31.901  90.605  54.430  0.00  0.00    +0.000 A 
ATOM      8  C   UNL     1      31.382  89.292  54.209  0.00  0.00    +0.000 A 
ATOM      9  C   UNL     1      32.174  88.127  54.200  0.00  0.00    +0.000 A 
ATOM     10  C   UNL     1      31.625  86.864  53.992  0.00  0.00    +0.000 A 
ENDROOT
BRANCH   1  16
ATOM     11  C   UNL     1      30.020  84.467  52.517  0.00  0.00    +0.000 A 
ATOM     12  N   UNL     1      29.533  83.215  52.417  0.00  0.00    +0.000 NA
ATOM     13  C   UNL     1      28.636  82.854  53.336  0.00  0.00    +0.000 A 
ATOM     14  N   UNL     1      28.202  83.626  54.340  0.00  0.00    +0.000 NA
ATOM     15  C   UNL     1      28.742  84.860  54.408  0.00  0.00    +0.000 A 
ATOM     16  C   UNL     1      29.681  85.368  53.526  0.00  0.00    +0.000 A 
BRANCH  11  18
ATOM     17  C   UNL     1      30.487  84.567  50.208  0.00  0.00    +0.000 C 
ATOM     18  O   UNL     1      30.900  84.891  51.535  0.00  0.00    +0.000 OA
ENDBRANCH  11  18
BRANCH  13  19
ATOM     19  O   UNL     1      28.150  81.575  53.189  0.00  0.00    +0.000 OA
ATOM     20  C   UNL     1      26.894  81.537  52.527  0.00  0.00    +0.000 C 
ENDBRANCH  13  19
ENDBRANCH   1  16
BRANCH   6  21
ATOM     21  S   UNL     1      31.501  93.357  54.529  0.00  0.00    +0.000 S 
ATOM     22  O   UNL     1      30.298  94.164  54.473  0.00  0.00    +0.000 OA
ATOM     23  O   UNL     1      32.425  93.474  55.637  0.00  0.00    +0.000 OA
BRANCH  21  24
ATOM     24  N   UNL     1      32.343  93.691  53.109  0.00  0.00    +0.000 NA
ATOM     25  H   UNL     1      32.924  92.899  52.827  0.00  0.00    +0.000 HD
BRANCH  24  26
ATOM     26  C   UNL     1      31.668  94.440  52.057  0.00  0.00    +0.000 C 
ATOM     27  C   UNL     1      31.813  94.009  50.623  0.00  0.00    +0.000 C 
ATOM     28  C   UNL     1      32.469  95.273  51.095  0.00  0.00    +0.000 C 
ENDBRANCH  24  26
ENDBRANCH  21  24
ENDBRANCH   6  21
BRANCH   7  29
ATOM     29  N   UNL     1      33.272  90.830  54.708  0.00  0.00    +0.000 N 
ATOM     30  H   UNL     1      33.464  90.970  55.705  0.00  0.00    +0.000 HD
BRANCH  29  31
ATOM     31  C   UNL     1      34.442  90.636  53.946  0.00  0.00    +0.000 A 
ATOM     32  C   UNL     1      34.997  91.604  53.097  0.00  0.00    +0.000 A 
ATOM     33  C   UNL     1      36.199  91.362  52.417  0.00  0.00    +0.000 A 
ATOM     34  C   UNL     1      36.833  90.123  52.539  0.00  0.00    +0.000 A 
ATOM     35  C   UNL     1      36.340  89.183  53.444  0.00  0.00    +0.000 A 
ATOM     36  C   UNL     1      35.151  89.441  54.137  0.00  0.00    +0.000 A 
BRANCH  35  37
ATOM     37  C   UNL     1      37.021  87.887  53.677  0.00  0.00    +0.000 C 
ATOM     38  O   UNL     1      37.218  87.445  54.795  0.00  0.00    +0.000 OA
BRANCH  37  39
ATOM     39  O   UNL     1      37.437  87.265  52.554  0.00  0.00    +0.000 OA
ATOM     40  H   UNL     1      37.322  87.756  51.721  0.00  0.00    +0.000 HD
ENDBRANCH  37  39
ENDBRANCH  35  37
BRANCH  33  41
ATOM     41  O   UNL     1      36.678  92.381  51.613  0.00  0.00    +0.000 OA
BRANCH  41  42
ATOM     42  C   UNL     1      36.307  92.397  50.284  0.00  0.00    +0.000 A 
ATOM     43  C   UNL     1      35.445  93.415  49.873  0.00  0.00    +0.000 A 
ATOM     44  C   UNL     1      35.006  93.446  48.550  0.00  0.00    +0.000 A 
ATOM     45  C   UNL     1      35.412  92.488  47.632  0.00  0.00    +0.000 A 
ATOM     46  C   UNL     1      36.302  91.507  48.044  0.00  0.00    +0.000 A 
ATOM     47  C   UNL     1      36.777  91.467  49.352  0.00  0.00    +0.000 A 
ATOM     48  F   UNL     1      36.696  90.564  47.178  0.00  0.00    +0.000 F 
ATOM     49  F   UNL     1      34.161  94.410  48.162  0.00  0.00    +0.000 F 
ENDBRANCH  41  42
ENDBRANCH  33  41
ENDBRANCH  29  31
ENDBRANCH   7  29
TORSDOF 12
ENDMDL
MODEL 3
REMARK VINA RESULT:    -9.271      3.746      8.621
REMARK INTER + INTRA:         -18.395
REMARK INTER:                 -15.903
REMARK INTRA:                  -2.492
REMARK UNBOUND:                -2.892
REMARK  Name = 
REMARK  14 active torsions:
REMARK  status: ('A' for Active; 'I' for Inactive)
REMARK    1  A    between atoms: C_1  and  O_2
REMARK    2  A    between atoms: O_2  and  C_3
REMARK    3  A    between atoms: C_5  and  O_45
REMARK    4  A    between atoms: C_8  and  C_9
REMARK    5  A    between atoms: C_14  and  S_38
REMARK    6  A    between atoms: C_15  and  N_19
REMARK    7  A    between atoms: N_19  and  C_20
REMARK    8  A    between atoms: C_22  and  O_29
REMARK    9  A    between atoms: C_24  and  C_26
REMARK   10  A    between atoms: C_26  and  O_28
REMARK   11  A    between atoms: O_29  and  C_30
REMARK   12  A    between atoms: S_38  and  N_41
REMARK   13  A    between atoms: N_41  and  C_42
REMARK   14  A    between atoms: O_45  and  C_46
REMARK                            x       y       z     vdW  Elec       q    Type
REMARK                         _______ _______ _______ _____ _____    ______ ____
ROOT
ATOM      1  C   UNL     1      30.168  87.261  53.980  0.00  0.00    +0.000 A 
ATOM      2  C   UNL     1      29.401  88.428  53.808  0.00  0.00    +0.000 A 
ATOM      3  C   UNL     1      29.927  89.712  53.954  0.00  0.00    +0.000 A 
ATOM      4  N   UNL     1      29.106  90.756  53.775  0.00  0.00    +0.000 NA
ATOM      5  C   UNL     1      29.616  92.004  53.877  0.00  0.00    +0.000 A 
ATOM      6  C   UNL     1      30.934  92.265  54.190  0.00  0.00    +0.000 A 
ATOM      7  C   UNL     1      31.818  91.194  54.385  0.00  0.00    +0.000 A 
ATOM      8  C   UNL     1      31.293  89.870  54.269  0.00  0.00    +0.000 A 
ATOM      9  C   UNL     1      32.073  88.703  54.395  0.00  0.00    +0.000 A 
ATOM     10  C   UNL     1      31.518  87.430  54.288  0.00  0.00    +0.000 A 
ENDROOT
BRANCH   1  16
ATOM     11  C   UNL     1      28.364  85.517  54.461  0.00  0.00    +0.000 A 
ATOM     12  N   UNL     1      27.804  84.303  54.296  0.00  0.00    +0.000 NA
ATOM     13  C   UNL     1      28.498  83.425  53.571  0.00  0.00    +0.000 A 
ATOM     14  N   UNL     1      29.683  83.662  52.994  0.00  0.00    +0.000 NA
ATOM     15  C   UNL     1      30.185  84.901  53.170  0.00  0.00    +0.000 A 
ATOM     16  C   UNL     1      29.576  85.912  53.896  0.00  0.00    +0.000 A 
BRANCH  11  18
ATOM     17  C   UNL     1      26.285  86.452  55.066  0.00  0.00    +0.000 C 
ATOM     18  O   UNL     1      27.697  86.424  55.269  0.00  0.00    +0.000 OA
ENDBRANCH  11  18
BRANCH  13  19
ATOM     19  O   UNL     1      27.901  82.192  53.440  0.00  0.00    +0.000 OA
ATOM     20  C   UNL     1      27.202  82.047  52.213  0.00  0.00    +0.000 C 
ENDBRANCH  13  19
ENDBRANCH   1  16
BRANCH   6  21
ATOM     21  S   UNL     1      31.444  93.946  54.215  0.00  0.00    +0.000 S 
ATOM     22  O   UNL     1      30.252  94.753  54.039  0.00  0.00    +0.000 OA
ATOM     23  O   UNL     1      32.329  94.159  55.339  0.00  0.00    +0.000 OA
BRANCH  21  24
ATOM     24  N   UNL     1      32.338  94.139  52.801  0.00  0.00    +0.000 NA
ATOM     25  H   UNL     1      32.911  93.315  52.608  0.00  0.00    +0.000 HD
BRANCH  24  26
ATOM     26  C   UNL     1      31.715  94.806  51.664  0.00  0.00    +0.000 C 
ATOM     27  C   UNL     1      31.848  94.217  50.287  0.00  0.00    +0.000 C 
ATOM     28  C   UNL     1      32.568  95.488  50.631  0.00  0.00    +0.000 C 
ENDBRANCH  24  26
ENDBRANCH  21  24
ENDBRANCH   6  21
BRANCH   7  29
ATOM     29  N   UNL     1      33.181  91.434  54.687  0.00  0.00    +0.000 N 
ATOM     30  H   UNL     1      33.335  91.714  55.661  0.00  0.00    +0.000 HD
BRANCH  29  31
ATOM     31  C   UNL     1      34.377  91.110  54.015  0.00  0.00    +0.000 A 
ATOM     32  C   UNL     1      34.987  91.933  53.056  0.00  0.00    +0.000 A 
ATOM     33  C   UNL     1      36.210  91.574  52.472  0.00  0.00    +0.000 A 
ATOM     34  C   UNL     1      36.812  90.357  52.804  0.00  0.00    +0.000 A 
ATOM     35  C   UNL     1      36.262  89.570  53.816  0.00  0.00    +0.000 A 
ATOM     36  C   UNL     1      35.052  89.947  54.411  0.00  0.00    +0.000 A 
BRANCH  35  37
ATOM     37  C   UNL     1      36.905  88.314  54.268  0.00  0.00    +0.000 C 
ATOM     38  O   UNL     1      36.946  87.314  53.571  0.00  0.00    +0.000 OA
BRANCH  37  39
ATOM     39  O   UNL     1      37.402  88.359  55.521  0.00  0.00    +0.000 OA
ATOM     40  H   UNL     1      37.728  89.226  55.825  0.00  0.00    +0.000 HD
ENDBRANCH  37  39
ENDBRANCH  35  37
BRANCH  33  41
ATOM     41  O   UNL     1      36.743  92.454  51.548  0.00  0.00    +0.000 OA
BRANCH  41  42
ATOM     42  C   UNL     1      36.353  92.337  50.230  0.00  0.00    +0.000 A 
ATOM     43  C   UNL     1      35.497  93.317  49.726  0.00  0.00    +0.000 A 
ATOM     44  C   UNL     1      35.039  93.216  48.413  0.00  0.00    +0.000 A 
ATOM     45  C   UNL     1      35.420  92.162  47.595  0.00  0.00    +0.000 A 
ATOM     46  C   UNL     1      36.305  91.217  48.095  0.00  0.00    +0.000 A 
ATOM     47  C   UNL     1      36.799  91.308  49.393  0.00  0.00    +0.000 A 
ATOM     48  F   UNL     1      36.674  90.184  47.327  0.00  0.00    +0.000 F 
ATOM     49  F   UNL     1      34.200  94.145  47.938  0.00  0.00    +0.000 F 
ENDBRANCH  41  42
ENDBRANCH  33  41
ENDBRANCH  29  31
ENDBRANCH   7  29
TORSDOF 12
ENDMDL
MODEL 4
REMARK VINA RESULT:    -9.234      3.641      9.557
REMARK INTER + INTRA:         -18.334
REMARK INTER:                 -15.177
REMARK INTRA:                  -3.157
REMARK UNBOUND:                -2.892
REMARK  Name = 
REMARK  14 active torsions:
REMARK  status: ('A' for Active; 'I' for Inactive)
REMARK    1  A    between atoms: C_1  and  O_2
REMARK    2  A    between atoms: O_2  and  C_3
REMARK    3  A    between atoms: C_5  and  O_45
REMARK    4  A    between atoms: C_8  and  C_9
REMARK    5  A    between atoms: C_14  and  S_38
REMARK    6  A    between atoms: C_15  and  N_19
REMARK    7  A    between atoms: N_19  and  C_20
REMARK    8  A    between atoms: C_22  and  O_29
REMARK    9  A    between atoms: C_24  and  C_26
REMARK   10  A    between atoms: C_26  and  O_28
REMARK   11  A    between atoms: O_29  and  C_30
REMARK   12  A    between atoms: S_38  and  N_41
REMARK   13  A    between atoms: N_41  and  C_42
REMARK   14  A    between atoms: O_45  and  C_46
REMARK                            x       y       z     vdW  Elec       q    Type
REMARK                         _______ _______ _______ _____ _____    ______ ____
ROOT
ATOM      1  C   UNL     1      28.310  89.719  54.983  0.00  0.00    +0.000 A 
ATOM      2  C   UNL     1      29.123  90.250  56.002  0.00  0.00    +0.000 A 
ATOM      3  C   UNL     1      29.552  91.578  56.019  0.00  0.00    +0.000 A 
ATOM      4  N   UNL     1      30.330  91.978  57.034  0.00  0.00    +0.000 NA
ATOM      5  C   UNL     1      30.719  93.272  57.078  0.00  0.00    +0.000 A 
ATOM      6  C   UNL     1      30.385  94.201  56.115  0.00  0.00    +0.000 A 
ATOM      7  C   UNL     1      29.572  93.813  55.040  0.00  0.00    +0.000 A 
ATOM      8  C   UNL     1      29.146  92.450  54.987  0.00  0.00    +0.000 A 
ATOM      9  C   UNL     1      28.294  91.933  53.992  0.00  0.00    +0.000 A 
ATOM     10  C   UNL     1      27.913  90.593  53.971  0.00  0.00    +0.000 A 
ENDROOT
BRANCH   1  16
ATOM     11  C   UNL     1      28.812  87.217  54.851  0.00  0.00    +0.000 A 
ATOM     12  N   UNL     1      28.444  85.923  54.904  0.00  0.00    +0.000 NA
ATOM     13  C   UNL     1      27.137  85.683  55.011  0.00  0.00    +0.000 A 
ATOM     14  N   UNL     1      26.181  86.618  55.083  0.00  0.00    +0.000 NA
ATOM     15  C   UNL     1      26.608  87.897  55.051  0.00  0.00    +0.000 A 
ATOM     16  C   UNL     1      27.930  88.294  54.943  0.00  0.00    +0.000 A 
BRANCH  11  18
ATOM     17  C   UNL     1      30.588  87.404  53.311  0.00  0.00    +0.000 C 
ATOM     18  O   UNL     1      30.158  87.494  54.668  0.00  0.00    +0.000 OA
ENDBRANCH  11  18
BRANCH  13  19
ATOM     19  O   UNL     1      26.801  84.349  55.045  0.00  0.00    +0.000 OA
ATOM     20  C   UNL     1      25.952  84.023  56.135  0.00  0.00    +0.000 C 
ENDBRANCH  13  19
ENDBRANCH   1  16
BRANCH   6  21
ATOM     21  S   UNL     1      30.918  95.856  56.365  0.00  0.00    +0.000 S 
ATOM     22  O   UNL     1      29.797  96.717  56.038  0.00  0.00    +0.000 OA
ATOM     23  O   UNL     1      31.583  95.954  57.647  0.00  0.00    +0.000 OA
BRANCH  21  24
ATOM     24  N   UNL     1      32.064  96.120  55.160  0.00  0.00    +0.000 NA
ATOM     25  H   UNL     1      31.900  97.005  54.678  0.00  0.00    +0.000 HD
BRANCH  24  26
ATOM     26  C   UNL     1      33.448  95.740  55.417  0.00  0.00    +0.000 C 
ATOM     27  C   UNL     1      34.437  95.710  54.284  0.00  0.00    +0.000 C 
ATOM     28  C   UNL     1      33.974  94.427  54.909  0.00  0.00    +0.000 C 
ENDBRANCH  24  26
ENDBRANCH  21  24
ENDBRANCH   6  21
BRANCH   7  29
ATOM     29  N   UNL     1      29.197  94.752  54.047  0.00  0.00    +0.000 N 
ATOM     30  H   UNL     1      28.477  95.410  54.365  0.00  0.00    +0.000 HD
BRANCH  29  31
ATOM     31  C   UNL     1      29.790  95.137  52.828  0.00  0.00    +0.000 A 
ATOM     32  C   UNL     1      30.485  94.260  51.981  0.00  0.00    +0.000 A 
ATOM     33  C   UNL     1      30.996  94.701  50.752  0.00  0.00    +0.000 A 
ATOM     34  C   UNL     1      30.864  96.041  50.380  0.00  0.00    +0.000 A 
ATOM     35  C   UNL     1      30.104  96.903  51.170  0.00  0.00    +0.000 A 
ATOM     36  C   UNL     1      29.576  96.450  52.386  0.00  0.00    +0.000 A 
BRANCH  35  37
ATOM     37  C   UNL     1      29.859  98.312  50.781  0.00  0.00    +0.000 C 
ATOM     38  O   UNL     1      29.906  99.229  51.582  0.00  0.00    +0.000 OA
BRANCH  37  39
ATOM     39  O   UNL     1      29.543  98.485  49.481  0.00  0.00    +0.000 OA
ATOM     40  H   UNL     1      28.683  98.127  49.194  0.00  0.00    +0.000 HD
ENDBRANCH  37  39
ENDBRANCH  35  37
BRANCH  33  41
ATOM     41  O   UNL     1      31.653  93.762  49.977  0.00  0.00    +0.000 OA
BRANCH  41  42
ATOM     42  C   UNL     1      33.032  93.800  49.929  0.00  0.00    +0.000 A 
ATOM     43  C   UNL     1      33.628  93.816  48.668  0.00  0.00    +0.000 A 
ATOM     44  C   UNL     1      35.019  93.807  48.568  0.00  0.00    +0.000 A 
ATOM     45  C   UNL     1      35.823  93.788  49.699  0.00  0.00    +0.000 A 
ATOM     46  C   UNL     1      35.217  93.814  50.947  0.00  0.00    +0.000 A 
ATOM     47  C   UNL     1      33.832  93.849  51.076  0.00  0.00    +0.000 A 
ATOM     48  F   UNL     1      35.974  93.781  52.051  0.00  0.00    +0.000 F 
ATOM     49  F   UNL     1      35.590  93.801  47.357  0.00  0.00    +0.000 F 
ENDBRANCH  41  42
ENDBRANCH  33  41
ENDBRANCH  29  31
ENDBRANCH   7  29
TORSDOF 12
ENDMDL
MODEL 5
REMARK VINA RESULT:    -9.075      3.383      6.656
REMARK INTER + INTRA:         -18.067
REMARK INTER:                 -15.998
REMARK INTRA:                  -2.069
REMARK UNBOUND:                -2.892
REMARK  Name = 
REMARK  14 active torsions:
REMARK  status: ('A' for Active; 'I' for Inactive)
REMARK    1  A    between atoms: C_1  and  O_2
REMARK    2  A    between atoms: O_2  and  C_3
REMARK    3  A    between atoms: C_5  and  O_45
REMARK    4  A    between atoms: C_8  and  C_9
REMARK    5  A    between atoms: C_14  and  S_38
REMARK    6  A    between atoms: C_15  and  N_19
REMARK    7  A    between atoms: N_19  and  C_20
REMARK    8  A    between atoms: C_22  and  O_29
REMARK    9  A    between atoms: C_24  and  C_26
REMARK   10  A    between atoms: C_26  and  O_28
REMARK   11  A    between atoms: O_29  and  C_30
REMARK   12  A    between atoms: S_38  and  N_41
REMARK   13  A    between atoms: N_41  and  C_42
REMARK   14  A    between atoms: O_45  and  C_46
REMARK                            x       y       z     vdW  Elec       q    Type
REMARK                         _______ _______ _______ _____ _____    ______ ____
ROOT
ATOM      1  C   UNL     1      31.451  93.841  52.547  0.00  0.00    +0.000 A 
ATOM      2  C   UNL     1      32.655  93.119  52.445  0.00  0.00    +0.000 A 
ATOM      3  C   UNL     1      32.866  91.897  53.085  0.00  0.00    +0.000 A 
ATOM      4  N   UNL     1      34.054  91.297  52.926  0.00  0.00    +0.000 NA
ATOM      5  C   UNL     1      34.253  90.095  53.511  0.00  0.00    +0.000 A 
ATOM      6  C   UNL     1      33.309  89.462  54.293  0.00  0.00    +0.000 A 
ATOM      7  C   UNL     1      32.056  90.065  54.478  0.00  0.00    +0.000 A 
ATOM      8  C   UNL     1      31.830  91.331  53.856  0.00  0.00    +0.000 A 
ATOM      9  C   UNL     1      30.607  92.029  53.920  0.00  0.00    +0.000 A 
ATOM     10  C   UNL     1      30.433  93.269  53.310  0.00  0.00    +0.000 A 
ENDROOT
BRANCH   1  16
ATOM     11  C   UNL     1      31.502  96.395  52.546  0.00  0.00    +0.000 A 
ATOM     12  N   UNL     1      31.417  97.590  51.929  0.00  0.00    +0.000 NA
ATOM     13  C   UNL     1      31.050  97.569  50.648  0.00  0.00    +0.000 A 
ATOM     14  N   UNL     1      30.777  96.467  49.937  0.00  0.00    +0.000 NA
ATOM     15  C   UNL     1      30.903  95.298  50.597  0.00  0.00    +0.000 A 
ATOM     16  C   UNL     1      31.276  95.168  51.925  0.00  0.00    +0.000 A 
BRANCH  11  18
ATOM     17  C   UNL     1      32.749  97.400  54.278  0.00  0.00    +0.000 C 
ATOM     18  O   UNL     1      31.812  96.393  53.897  0.00  0.00    +0.000 OA
ENDBRANCH  11  18
BRANCH  13  19
ATOM     19  O   UNL     1      30.958  98.810  50.059  0.00  0.00    +0.000 OA
ATOM     20  C   UNL     1      32.169  99.213  49.436  0.00  0.00    +0.000 C 
ENDBRANCH  13  19
ENDBRANCH   1  16
BRANCH   6  21
ATOM     21  S   UNL     1      33.710  87.871  54.920  0.00  0.00    +0.000 S 
ATOM     22  O   UNL     1      33.313  87.852  56.314  0.00  0.00    +0.000 OA
ATOM     23  O   UNL     1      33.236  86.862  53.997  0.00  0.00    +0.000 OA
BRANCH  21  24
ATOM     24  N   UNL     1      35.393  87.827  54.922  0.00  0.00    +0.000 NA
ATOM     25  H   UNL     1      35.768  87.976  55.861  0.00  0.00    +0.000 HD
BRANCH  24  26
ATOM     26  C   UNL     1      36.069  86.852  54.075  0.00  0.00    +0.000 C 
ATOM     27  C   UNL     1      37.510  86.507  54.335  0.00  0.00    +0.000 C 
ATOM     28  C   UNL     1      37.136  87.299  53.116  0.00  0.00    +0.000 C 
ENDBRANCH  24  26
ENDBRANCH  21  24
ENDBRANCH   6  21
BRANCH   7  29
ATOM     29  N   UNL     1      31.061  89.427  55.259  0.00  0.00    +0.000 N 
ATOM     30  H   UNL     1      30.894  89.892  56.158  0.00  0.00    +0.000 HD
BRANCH  29  31
ATOM     31  C   UNL     1      30.079  88.464  54.950  0.00  0.00    +0.000 A 
ATOM     32  C   UNL     1      30.358  87.118  54.672  0.00  0.00    +0.000 A 
ATOM     33  C   UNL     1      29.323  86.202  54.432  0.00  0.00    +0.000 A 
ATOM     34  C   UNL     1      27.996  86.637  54.415  0.00  0.00    +0.000 A 
ATOM     35  C   UNL     1      27.697  87.952  54.772  0.00  0.00    +0.000 A 
ATOM     36  C   UNL     1      28.735  88.856  55.033  0.00  0.00    +0.000 A 
BRANCH  35  37
ATOM     37  C   UNL     1      26.301  88.444  54.853  0.00  0.00    +0.000 C 
ATOM     38  O   UNL     1      26.031  89.628  54.953  0.00  0.00    +0.000 OA
BRANCH  37  39
ATOM     39  O   UNL     1      25.366  87.472  54.849  0.00  0.00    +0.000 OA
ATOM     40  H   UNL     1      25.072  87.160  53.974  0.00  0.00    +0.000 HD
ENDBRANCH  37  39
ENDBRANCH  35  37
BRANCH  33  41
ATOM     41  O   UNL     1      29.694  84.893  54.183  0.00  0.00    +0.000 OA
BRANCH  41  42
ATOM     42  C   UNL     1      29.512  84.391  52.910  0.00  0.00    +0.000 A 
ATOM     43  C   UNL     1      30.454  84.744  51.943  0.00  0.00    +0.000 A 
ATOM     44  C   UNL     1      30.289  84.299  50.632  0.00  0.00    +0.000 A 
ATOM     45  C   UNL     1      29.207  83.508  50.270  0.00  0.00    +0.000 A 
ATOM     46  C   UNL     1      28.301  83.131  51.250  0.00  0.00    +0.000 A 
ATOM     47  C   UNL     1      28.456  83.539  52.572  0.00  0.00    +0.000 A 
ATOM     48  F   UNL     1      27.242  82.380  50.919  0.00  0.00    +0.000 F 
ATOM     49  F   UNL     1      31.181  84.656  49.700  0.00  0.00    +0.000 F 
ENDBRANCH  41  42
ENDBRANCH  33  41
ENDBRANCH  29  31
ENDBRANCH   7  29
TORSDOF 12
ENDMDL
MODEL 6
REMARK VINA RESULT:    -9.065      3.803      8.531
REMARK INTER + INTRA:         -18.051
REMARK INTER:                 -15.794
REMARK INTRA:                  -2.257
REMARK UNBOUND:                -2.892
REMARK  Name = 
REMARK  14 active torsions:
REMARK  status: ('A' for Active; 'I' for Inactive)
REMARK    1  A    between atoms: C_1  and  O_2
REMARK    2  A    between atoms: O_2  and  C_3
REMARK    3  A    between atoms: C_5  and  O_45
REMARK    4  A    between atoms: C_8  and  C_9
REMARK    5  A    between atoms: C_14  and  S_38
REMARK    6  A    between atoms: C_15  and  N_19
REMARK    7  A    between atoms: N_19  and  C_20
REMARK    8  A    between atoms: C_22  and  O_29
REMARK    9  A    between atoms: C_24  and  C_26
REMARK   10  A    between atoms: C_26  and  O_28
REMARK   11  A    between atoms: O_29  and  C_30
REMARK   12  A    between atoms: S_38  and  N_41
REMARK   13  A    between atoms: N_41  and  C_42
REMARK   14  A    between atoms: O_45  and  C_46
REMARK                            x       y       z     vdW  Elec       q    Type
REMARK                         _______ _______ _______ _____ _____    ______ ____
ROOT
ATOM      1  C   UNL     1      28.933  88.981  54.483  0.00  0.00    +0.000 A 
ATOM      2  C   UNL     1      28.510  90.264  54.091  0.00  0.00    +0.000 A 
ATOM      3  C   UNL     1      29.362  91.369  54.059  0.00  0.00    +0.000 A 
ATOM      4  N   UNL     1      28.853  92.548  53.676  0.00  0.00    +0.000 NA
ATOM      5  C   UNL     1      29.679  93.616  53.607  0.00  0.00    +0.000 A 
ATOM      6  C   UNL     1      31.017  93.567  53.940  0.00  0.00    +0.000 A 
ATOM      7  C   UNL     1      31.579  92.347  54.345  0.00  0.00    +0.000 A 
ATOM      8  C   UNL     1      30.718  91.210  54.413  0.00  0.00    +0.000 A 
ATOM      9  C   UNL     1      31.154  89.916  54.761  0.00  0.00    +0.000 A 
ATOM     10  C   UNL     1      30.277  88.835  54.827  0.00  0.00    +0.000 A 
ENDROOT
BRANCH   1  16
ATOM     11  C   UNL     1      28.347  86.494  54.496  0.00  0.00    +0.000 A 
ATOM     12  N   UNL     1      27.488  85.472  54.676  0.00  0.00    +0.000 NA
ATOM     13  C   UNL     1      26.218  85.801  54.912  0.00  0.00    +0.000 A 
ATOM     14  N   UNL     1      25.744  87.051  54.994  0.00  0.00    +0.000 NA
ATOM     15  C   UNL     1      26.651  88.034  54.831  0.00  0.00    +0.000 A 
ATOM     16  C   UNL     1      28.000  87.842  54.582  0.00  0.00    +0.000 A 
BRANCH  11  18
ATOM     17  C   UNL     1      29.866  84.802  53.871  0.00  0.00    +0.000 C 
ATOM     18  O   UNL     1      29.659  86.179  54.180  0.00  0.00    +0.000 OA
ENDBRANCH  11  18
BRANCH  13  19
ATOM     19  O   UNL     1      25.370  84.729  55.073  0.00  0.00    +0.000 OA
ATOM     20  C   UNL     1      24.198  84.830  54.277  0.00  0.00    +0.000 C 
ENDBRANCH  13  19
ENDBRANCH   1  16
BRANCH   6  21
ATOM     21  S   UNL     1      31.960  95.033  53.725  0.00  0.00    +0.000 S 
ATOM     22  O   UNL     1      31.024  96.140  53.695  0.00  0.00    +0.000 OA
ATOM     23  O   UNL     1      33.073  95.024  54.650  0.00  0.00    +0.000 OA
BRANCH  21  24
ATOM     24  N   UNL     1      32.579  94.915  52.163  0.00  0.00    +0.000 NA
ATOM     25  H   UNL     1      32.990  93.995  51.995  0.00  0.00    +0.000 HD
BRANCH  24  26
ATOM     26  C   UNL     1      31.838  95.531  51.069  0.00  0.00    +0.000 C 
ATOM     27  C   UNL     1      31.710  94.812  49.755  0.00  0.00    +0.000 C 
ATOM     28  C   UNL     1      32.569  96.037  49.857  0.00  0.00    +0.000 C 
ENDBRANCH  24  26
ENDBRANCH  21  24
ENDBRANCH   6  21
BRANCH   7  29
ATOM     29  N   UNL     1      32.955  92.265  54.674  0.00  0.00    +0.000 N 
ATOM     30  H   UNL     1      33.147  92.468  55.661  0.00  0.00    +0.000 HD
BRANCH  29  31
ATOM     31  C   UNL     1      34.062  91.707  54.004  0.00  0.00    +0.000 A 
ATOM     32  C   UNL     1      34.834  92.393  53.055  0.00  0.00    +0.000 A 
ATOM     33  C   UNL     1      35.960  91.793  52.473  0.00  0.00    +0.000 A 
ATOM     34  C   UNL     1      36.296  90.476  52.798  0.00  0.00    +0.000 A 
ATOM     35  C   UNL     1      35.590  89.812  53.801  0.00  0.00    +0.000 A 
ATOM     36  C   UNL     1      34.480  90.426  54.394  0.00  0.00    +0.000 A 
BRANCH  35  37
ATOM     37  C   UNL     1      35.957  88.446  54.244  0.00  0.00    +0.000 C 
ATOM     38  O   UNL     1      35.694  87.453  53.588  0.00  0.00    +0.000 OA
BRANCH  37  39
ATOM     39  O   UNL     1      36.567  88.395  55.447  0.00  0.00    +0.000 OA
ATOM     40  H   UNL     1      36.875  89.244  55.811  0.00  0.00    +0.000 HD
ENDBRANCH  37  39
ENDBRANCH  35  37
BRANCH  33  41
ATOM     41  O   UNL     1      36.669  92.551  51.559  0.00  0.00    +0.000 OA
BRANCH  41  42
ATOM     42  C   UNL     1      36.352  92.431  50.221  0.00  0.00    +0.000 A 
ATOM     43  C   UNL     1      35.525  93.410  49.669  0.00  0.00    +0.000 A 
ATOM     44  C   UNL     1      35.139  93.307  48.334  0.00  0.00    +0.000 A 
ATOM     45  C   UNL     1      35.564  92.251  47.540  0.00  0.00    +0.000 A 
ATOM     46  C   UNL     1      36.420  91.307  48.090  0.00  0.00    +0.000 A 
ATOM     47  C   UNL     1      36.841  91.400  49.413  0.00  0.00    +0.000 A 
ATOM     48  F   UNL     1      36.830  90.272  47.345  0.00  0.00    +0.000 F 
ATOM     49  F   UNL     1      34.328  94.235  47.811  0.00  0.00    +0.000 F 
ENDBRANCH  41  42
ENDBRANCH  33  41
ENDBRANCH  29  31
ENDBRANCH   7  29
TORSDOF 12
ENDMDL
MODEL 7
REMARK VINA RESULT:    -9.050      3.794      8.507
REMARK INTER + INTRA:         -18.026
REMARK INTER:                 -15.322
REMARK INTRA:                  -2.704
REMARK UNBOUND:                -2.892
REMARK  Name = 
REMARK  14 active torsions:
REMARK  status: ('A' for Active; 'I' for Inactive)
REMARK    1  A    between atoms: C_1  and  O_2
REMARK    2  A    between atoms: O_2  and  C_3
REMARK    3  A    between atoms: C_5  and  O_45
REMARK    4  A    between atoms: C_8  and  C_9
REMARK    5  A    between atoms: C_14  and  S_38
REMARK    6  A    between atoms: C_15  and  N_19
REMARK    7  A    between atoms: N_19  and  C_20
REMARK    8  A    between atoms: C_22  and  O_29
REMARK    9  A    between atoms: C_24  and  C_26
REMARK   10  A    between atoms: C_26  and  O_28
REMARK   11  A    between atoms: O_29  and  C_30
REMARK   12  A    between atoms: S_38  and  N_41
REMARK   13  A    between atoms: N_41  and  C_42
REMARK   14  A    between atoms: O_45  and  C_46
REMARK                            x       y       z     vdW  Elec       q    Type
REMARK                         _______ _______ _______ _____ _____    ______ ____
ROOT
ATOM      1  C   UNL     1      29.351  91.086  53.930  0.00  0.00    +0.000 A 
ATOM      2  C   UNL     1      28.796  92.328  53.568  0.00  0.00    +0.000 A 
ATOM      3  C   UNL     1      29.571  93.453  53.283  0.00  0.00    +0.000 A 
ATOM      4  N   UNL     1      28.939  94.588  52.955  0.00  0.00    +0.000 NA
ATOM      5  C   UNL     1      29.683  95.673  52.641  0.00  0.00    +0.000 A 
ATOM      6  C   UNL     1      31.062  95.686  52.670  0.00  0.00    +0.000 A 
ATOM      7  C   UNL     1      31.752  94.513  53.010  0.00  0.00    +0.000 A 
ATOM      8  C   UNL     1      30.977  93.357  53.334  0.00  0.00    +0.000 A 
ATOM      9  C   UNL     1      31.535  92.102  53.650  0.00  0.00    +0.000 A 
ATOM     10  C   UNL     1      30.743  91.003  53.973  0.00  0.00    +0.000 A 
ENDROOT
BRANCH   1  16
ATOM     11  C   UNL     1      28.809  88.591  54.039  0.00  0.00    +0.000 A 
ATOM     12  N   UNL     1      28.069  87.549  54.465  0.00  0.00    +0.000 NA
ATOM     13  C   UNL     1      26.962  87.849  55.145  0.00  0.00    +0.000 A 
ATOM     14  N   UNL     1      26.546  89.086  55.443  0.00  0.00    +0.000 NA
ATOM     15  C   UNL     1      27.337  90.090  55.015  0.00  0.00    +0.000 A 
ATOM     16  C   UNL     1      28.513  89.929  54.300  0.00  0.00    +0.000 A 
BRANCH  11  18
ATOM     17  C   UNL     1      30.318  86.940  53.296  0.00  0.00    +0.000 C 
ATOM     18  O   UNL     1      29.926  88.311  53.270  0.00  0.00    +0.000 OA
ENDBRANCH  11  18
BRANCH  13  19
ATOM     19  O   UNL     1      26.225  86.757  55.547  0.00  0.00    +0.000 OA
ATOM     20  C   UNL     1      25.438  86.209  54.500  0.00  0.00    +0.000 C 
ENDBRANCH  13  19
ENDBRANCH   1  16
BRANCH   6  21
ATOM     21  S   UNL     1      31.870  97.162  52.166  0.00  0.00    +0.000 S 
ATOM     22  O   UNL     1      30.836  98.150  51.926  0.00  0.00    +0.000 OA
ATOM     23  O   UNL     1      32.969  97.436  53.066  0.00  0.00    +0.000 OA
BRANCH  21  24
ATOM     24  N   UNL     1      32.513  96.797  50.652  0.00  0.00    +0.000 NA
ATOM     25  H   UNL     1      33.325  96.181  50.731  0.00  0.00    +0.000 HD
BRANCH  24  26
ATOM     26  C   UNL     1      31.599  96.565  49.541  0.00  0.00    +0.000 C 
ATOM     27  C   UNL     1      31.402  95.171  49.013  0.00  0.00    +0.000 C 
ATOM     28  C   UNL     1      32.137  96.187  48.190  0.00  0.00    +0.000 C 
ENDBRANCH  24  26
ENDBRANCH  21  24
ENDBRANCH   6  21
BRANCH   7  29
ATOM     29  N   UNL     1      33.169  94.493  53.028  0.00  0.00    +0.000 N 
ATOM     30  H   UNL     1      33.568  94.969  53.843  0.00  0.00    +0.000 HD
BRANCH  29  31
ATOM     31  C   UNL     1      34.119  93.734  52.315  0.00  0.00    +0.000 A 
ATOM     32  C   UNL     1      35.026  92.848  52.915  0.00  0.00    +0.000 A 
ATOM     33  C   UNL     1      35.903  92.079  52.136  0.00  0.00    +0.000 A 
ATOM     34  C   UNL     1      35.918  92.229  50.747  0.00  0.00    +0.000 A 
ATOM     35  C   UNL     1      34.967  93.042  50.132  0.00  0.00    +0.000 A 
ATOM     36  C   UNL     1      34.078  93.790  50.915  0.00  0.00    +0.000 A 
BRANCH  35  37
ATOM     37  C   UNL     1      34.882  93.171  48.658  0.00  0.00    +0.000 C 
ATOM     38  O   UNL     1      35.165  94.204  48.075  0.00  0.00    +0.000 OA
BRANCH  37  39
ATOM     39  O   UNL     1      34.431  92.069  48.025  0.00  0.00    +0.000 OA
ATOM     40  H   UNL     1      34.311  91.273  48.576  0.00  0.00    +0.000 HD
ENDBRANCH  37  39
ENDBRANCH  35  37
BRANCH  33  41
ATOM     41  O   UNL     1      36.751  91.222  52.814  0.00  0.00    +0.000 OA
BRANCH  41  42
ATOM     42  C   UNL     1      36.278  89.973  53.164  0.00  0.00    +0.000 A 
ATOM     43  C   UNL     1      37.118  89.163  53.929  0.00  0.00    +0.000 A 
ATOM     44  C   UNL     1      36.703  87.876  54.269  0.00  0.00    +0.000 A 
ATOM     45  C   UNL     1      35.469  87.386  53.866  0.00  0.00    +0.000 A 
ATOM     46  C   UNL     1      34.627  88.218  53.142  0.00  0.00    +0.000 A 
ATOM     47  C   UNL     1      35.005  89.516  52.811  0.00  0.00    +0.000 A 
ATOM     48  F   UNL     1      33.437  87.759  52.730  0.00  0.00    +0.000 F 
ATOM     49  F   UNL     1      37.519  87.091  54.984  0.00  0.00    +0.000 F 
ENDBRANCH  41  42
ENDBRANCH  33  41
ENDBRANCH  29  31
ENDBRANCH   7  29
TORSDOF 12
ENDMDL
MODEL 8
REMARK VINA RESULT:    -9.021      3.482      9.021
REMARK INTER + INTRA:         -17.977
REMARK INTER:                 -14.809
REMARK INTRA:                  -3.168
REMARK UNBOUND:                -2.892
REMARK  Name = 
REMARK  14 active torsions:
REMARK  status: ('A' for Active; 'I' for Inactive)
REMARK    1  A    between atoms: C_1  and  O_2
REMARK    2  A    between atoms: O_2  and  C_3
REMARK    3  A    between atoms: C_5  and  O_45
REMARK    4  A    between atoms: C_8  and  C_9
REMARK    5  A    between atoms: C_14  and  S_38
REMARK    6  A    between atoms: C_15  and  N_19
REMARK    7  A    between atoms: N_19  and  C_20
REMARK    8  A    between atoms: C_22  and  O_29
REMARK    9  A    between atoms: C_24  and  C_26
REMARK   10  A    between atoms: C_26  and  O_28
REMARK   11  A    between atoms: O_29  and  C_30
REMARK   12  A    between atoms: S_38  and  N_41
REMARK   13  A    between atoms: N_41  and  C_42
REMARK   14  A    between atoms: O_45  and  C_46
REMARK                            x       y       z     vdW  Elec       q    Type
REMARK                         _______ _______ _______ _____ _____    ______ ____
ROOT
ATOM      1  C   UNL     1      28.690  89.830  55.067  0.00  0.00    +0.000 A 
ATOM      2  C   UNL     1      29.250  90.256  56.286  0.00  0.00    +0.000 A 
ATOM      3  C   UNL     1      29.668  91.568  56.514  0.00  0.00    +0.000 A 
ATOM      4  N   UNL     1      30.195  91.864  57.709  0.00  0.00    +0.000 NA
ATOM      5  C   UNL     1      30.568  93.141  57.952  0.00  0.00    +0.000 A 
ATOM      6  C   UNL     1      30.466  94.154  57.022  0.00  0.00    +0.000 A 
ATOM      7  C   UNL     1      29.918  93.875  55.761  0.00  0.00    +0.000 A 
ATOM      8  C   UNL     1      29.512  92.531  55.496  0.00  0.00    +0.000 A 
ATOM      9  C   UNL     1      28.907  92.118  54.292  0.00  0.00    +0.000 A 
ATOM     10  C   UNL     1      28.537  90.794  54.070  0.00  0.00    +0.000 A 
ENDROOT
BRANCH   1  16
ATOM     11  C   UNL     1      29.208  87.398  54.481  0.00  0.00    +0.000 A 
ATOM     12  N   UNL     1      28.860  86.103  54.345  0.00  0.00    +0.000 NA
ATOM     13  C   UNL     1      27.568  85.817  54.512  0.00  0.00    +0.000 A 
ATOM     14  N   UNL     1      26.611  86.704  54.813  0.00  0.00    +0.000 NA
ATOM     15  C   UNL     1      27.019  87.980  54.963  0.00  0.00    +0.000 A 
ATOM     16  C   UNL     1      28.324  88.422  54.820  0.00  0.00    +0.000 A 
BRANCH  11  18
ATOM     17  C   UNL     1      30.990  87.387  52.937  0.00  0.00    +0.000 C 
ATOM     18  O   UNL     1      30.531  87.733  54.243  0.00  0.00    +0.000 OA
ENDBRANCH  11  18
BRANCH  13  19
ATOM     19  O   UNL     1      27.251  84.488  54.349  0.00  0.00    +0.000 OA
ATOM     20  C   UNL     1      28.073  83.841  53.388  0.00  0.00    +0.000 C 
ENDBRANCH  13  19
ENDBRANCH   1  16
BRANCH   6  21
ATOM     21  S   UNL     1      30.933  95.770  57.528  0.00  0.00    +0.000 S 
ATOM     22  O   UNL     1      29.872  96.667  57.115  0.00  0.00    +0.000 OA
ATOM     23  O   UNL     1      31.380  95.728  58.904  0.00  0.00    +0.000 OA
BRANCH  21  24
ATOM     24  N   UNL     1      32.258  96.151  56.561  0.00  0.00    +0.000 NA
ATOM     25  H   UNL     1      32.210  97.116  56.228  0.00  0.00    +0.000 HD
BRANCH  24  26
ATOM     26  C   UNL     1      33.568  95.632  56.933  0.00  0.00    +0.000 C 
ATOM     27  C   UNL     1      34.656  95.539  55.898  0.00  0.00    +0.000 C 
ATOM     28  C   UNL     1      34.016  94.289  56.427  0.00  0.00    +0.000 C 
ENDBRANCH  24  26
ENDBRANCH  21  24
ENDBRANCH   6  21
BRANCH   7  29
ATOM     29  N   UNL     1      29.783  94.902  54.794  0.00  0.00    +0.000 N 
ATOM     30  H   UNL     1      29.290  95.728  55.148  0.00  0.00    +0.000 HD
BRANCH  29  31
ATOM     31  C   UNL     1      30.412  95.130  53.553  0.00  0.00    +0.000 A 
ATOM     32  C   UNL     1      31.799  95.257  53.386  0.00  0.00    +0.000 A 
ATOM     33  C   UNL     1      32.359  95.422  52.111  0.00  0.00    +0.000 A 
ATOM     34  C   UNL     1      31.530  95.514  50.991  0.00  0.00    +0.000 A 
ATOM     35  C   UNL     1      30.158  95.306  51.130  0.00  0.00    +0.000 A 
ATOM     36  C   UNL     1      29.608  95.119  52.404  0.00  0.00    +0.000 A 
BRANCH  35  37
ATOM     37  C   UNL     1      29.243  95.308  49.964  0.00  0.00    +0.000 C 
ATOM     38  O   UNL     1      29.352  96.106  49.050  0.00  0.00    +0.000 OA
BRANCH  37  39
ATOM     39  O   UNL     1      28.262  94.384  50.022  0.00  0.00    +0.000 OA
ATOM     40  H   UNL     1      27.661  94.439  50.788  0.00  0.00    +0.000 HD
ENDBRANCH  37  39
ENDBRANCH  35  37
BRANCH  33  41
ATOM     41  O   UNL     1      33.737  95.523  52.043  0.00  0.00    +0.000 OA
BRANCH  41  42
ATOM     42  C   UNL     1      34.450  94.449  51.549  0.00  0.00    +0.000 A 
ATOM     43  C   UNL     1      34.858  93.477  52.464  0.00  0.00    +0.000 A 
ATOM     44  C   UNL     1      35.620  92.397  52.021  0.00  0.00    +0.000 A 
ATOM     45  C   UNL     1      35.977  92.267  50.686  0.00  0.00    +0.000 A 
ATOM     46  C   UNL     1      35.530  93.218  49.781  0.00  0.00    +0.000 A 
ATOM     47  C   UNL     1      34.746  94.293  50.192  0.00  0.00    +0.000 A 
ATOM     48  F   UNL     1      35.877  93.119  48.491  0.00  0.00    +0.000 F 
ATOM     49  F   UNL     1      36.029  91.477  52.903  0.00  0.00    +0.000 F 
ENDBRANCH  41  42
ENDBRANCH  33  41
ENDBRANCH  29  31
ENDBRANCH   7  29
TORSDOF 12
ENDMDL
MODEL 9
REMARK VINA RESULT:    -8.888      3.928      9.985
REMARK INTER + INTRA:         -17.756
REMARK INTER:                 -14.649
REMARK INTRA:                  -3.106
REMARK UNBOUND:                -2.892
REMARK  Name = 
REMARK  14 active torsions:
REMARK  status: ('A' for Active; 'I' for Inactive)
REMARK    1  A    between atoms: C_1  and  O_2
REMARK    2  A    between atoms: O_2  and  C_3
REMARK    3  A    between atoms: C_5  and  O_45
REMARK    4  A    between atoms: C_8  and  C_9
REMARK    5  A    between atoms: C_14  and  S_38
REMARK    6  A    between atoms: C_15  and  N_19
REMARK    7  A    between atoms: N_19  and  C_20
REMARK    8  A    between atoms: C_22  and  O_29
REMARK    9  A    between atoms: C_24  and  C_26
REMARK   10  A    between atoms: C_26  and  O_28
REMARK   11  A    between atoms: O_29  and  C_30
REMARK   12  A    between atoms: S_38  and  N_41
REMARK   13  A    between atoms: N_41  and  C_42
REMARK   14  A    between atoms: O_45  and  C_46
REMARK                            x       y       z     vdW  Elec       q    Type
REMARK                         _______ _______ _______ _____ _____    ______ ____
ROOT
ATOM      1  C   UNL     1      28.948  91.649  54.170  0.00  0.00    +0.000 A 
ATOM      2  C   UNL     1      28.461  92.416  53.095  0.00  0.00    +0.000 A 
ATOM      3  C   UNL     1      28.869  93.728  52.849  0.00  0.00    +0.000 A 
ATOM      4  N   UNL     1      28.337  94.370  51.801  0.00  0.00    +0.000 NA
ATOM      5  C   UNL     1      28.754  95.627  51.533  0.00  0.00    +0.000 A 
ATOM      6  C   UNL     1      29.680  96.302  52.302  0.00  0.00    +0.000 A 
ATOM      7  C   UNL     1      30.256  95.657  53.406  0.00  0.00    +0.000 A 
ATOM      8  C   UNL     1      29.829  94.324  53.694  0.00  0.00    +0.000 A 
ATOM      9  C   UNL     1      30.353  93.542  54.742  0.00  0.00    +0.000 A 
ATOM     10  C   UNL     1      29.899  92.249  54.995  0.00  0.00    +0.000 A 
ENDROOT
BRANCH   1  16
ATOM     11  C   UNL     1      29.166  89.107  54.299  0.00  0.00    +0.000 A 
ATOM     12  N   UNL     1      28.714  87.887  54.650  0.00  0.00    +0.000 NA
ATOM     13  C   UNL     1      27.476  87.834  55.142  0.00  0.00    +0.000 A 
ATOM     14  N   UNL     1      26.668  88.886  55.322  0.00  0.00    +0.000 NA
ATOM     15  C   UNL     1      27.180  90.085  54.978  0.00  0.00    +0.000 A 
ATOM     16  C   UNL     1      28.447  90.291  54.457  0.00  0.00    +0.000 A 
BRANCH  11  18
ATOM     17  C   UNL     1      31.063  87.917  53.560  0.00  0.00    +0.000 C 
ATOM     18  O   UNL     1      30.423  89.182  53.720  0.00  0.00    +0.000 OA
ENDBRANCH  11  18
BRANCH  13  19
ATOM     19  O   UNL     1      27.046  86.569  55.472  0.00  0.00    +0.000 OA
ATOM     20  C   UNL     1      27.665  85.557  54.691  0.00  0.00    +0.000 C 
ENDBRANCH  13  19
ENDBRANCH   1  16
BRANCH   6  21
ATOM     21  S   UNL     1      30.161  97.906  51.770  0.00  0.00    +0.000 S 
ATOM     22  O   UNL     1      29.578  98.110  50.459  0.00  0.00    +0.000 OA
ATOM     23  O   UNL     1      29.934  98.851  52.842  0.00  0.00    +0.000 OA
BRANCH  21  24
ATOM     24  N   UNL     1      31.822  97.789  51.519  0.00  0.00    +0.000 NA
ATOM     25  H   UNL     1      32.038  97.171  50.735  0.00  0.00    +0.000 HD
BRANCH  24  26
ATOM     26  C   UNL     1      32.638  98.987  51.675  0.00  0.00    +0.000 C 
ATOM     27  C   UNL     1      34.132  98.862  51.804  0.00  0.00    +0.000 C 
ATOM     28  C   UNL     1      33.309  99.274  52.989  0.00  0.00    +0.000 C 
ENDBRANCH  24  26
ENDBRANCH  21  24
ENDBRANCH   6  21
BRANCH   7  29
ATOM     29  N   UNL     1      31.224  96.320  54.201  0.00  0.00    +0.000 N 
ATOM     30  H   UNL     1      30.852  97.143  54.686  0.00  0.00    +0.000 HD
BRANCH  29  31
ATOM     31  C   UNL     1      32.496  95.935  54.670  0.00  0.00    +0.000 A 
ATOM     32  C   UNL     1      33.625  95.788  53.850  0.00  0.00    +0.000 A 
ATOM     33  C   UNL     1      34.874  95.462  54.397  0.00  0.00    +0.000 A 
ATOM     34  C   UNL     1      34.996  95.225  55.768  0.00  0.00    +0.000 A 
ATOM     35  C   UNL     1      33.904  95.450  56.606  0.00  0.00    +0.000 A 
ATOM     36  C   UNL     1      32.664  95.798  56.055  0.00  0.00    +0.000 A 
BRANCH  35  37
ATOM     37  C   UNL     1      34.000  95.297  58.077  0.00  0.00    +0.000 C 
ATOM     38  O   UNL     1      33.711  94.259  58.647  0.00  0.00    +0.000 OA
BRANCH  37  39
ATOM     39  O   UNL     1      34.394  96.411  58.729  0.00  0.00    +0.000 OA
ATOM     40  H   UNL     1      34.642  96.298  59.665  0.00  0.00    +0.000 HD
ENDBRANCH  37  39
ENDBRANCH  35  37
BRANCH  33  41
ATOM     41  O   UNL     1      35.933  95.353  53.513  0.00  0.00    +0.000 OA
BRANCH  41  42
ATOM     42  C   UNL     1      35.905  94.339  52.577  0.00  0.00    +0.000 A 
ATOM     43  C   UNL     1      35.890  94.711  51.232  0.00  0.00    +0.000 A 
ATOM     44  C   UNL     1      35.815  93.723  50.251  0.00  0.00    +0.000 A 
ATOM     45  C   UNL     1      35.760  92.377  50.584  0.00  0.00    +0.000 A 
ATOM     46  C   UNL     1      35.817  92.021  51.924  0.00  0.00    +0.000 A 
ATOM     47  C   UNL     1      35.918  92.985  52.923  0.00  0.00    +0.000 A 
ATOM     48  F   UNL     1      35.749  90.728  52.268  0.00  0.00    +0.000 F 
ATOM     49  F   UNL     1      35.780  94.082  48.961  0.00  0.00    +0.000 F 
ENDBRANCH  41  42
ENDBRANCH  33  41
ENDBRANCH  29  31
ENDBRANCH   7  29
TORSDOF 12
ENDMDL
