MODEL 1
REMARK VINA RESULT:    -3.959      0.000      0.000
REMARK INTER + INTRA:          -4.306
REMARK INTER:                  -4.306
REMARK INTRA:                   0.000
REMARK UNBOUND:                 0.000
REMARK  Name = 
REMARK  2 active torsions:
REMARK  status: ('A' for Active; 'I' for Inactive)
REMARK    1  A    between atoms: O_1  and  C_2
REMARK    2  A    between atoms: C_2  and  C_4
REMARK                            x       y       z     vdW  Elec       q    Type
REMARK                         _______ _______ _______ _____ _____    ______ ____
ROOT
ATOM      1  C   UNL     1      29.846  83.590  50.917  0.00  0.00    +0.000 C 
ATOM      2  O   UNL     1      29.165  83.812  51.908  0.00  0.00    +0.000 OA
ATOM      3  N   UNL     1      31.024  82.901  50.907  0.00  0.00    +0.000 N 
ATOM      4  H   UNL     1      31.525  82.762  50.035  0.00  0.00    +0.000 HD
ATOM      5  H   UNL     1      31.400  82.526  51.766  0.00  0.00    +0.000 HD
ENDROOT
BRANCH   1   6
ATOM      6  C   UNL     1      29.369  84.115  49.548  0.00  0.00    +0.000 C 
ATOM      7  O   UNL     1      28.240  83.939  49.132  0.00  0.00    +0.000 OA
BRANCH   6   8
ATOM      8  O   UNL     1      30.360  84.770  48.917  0.00  0.00    +0.000 OA
ATOM      9  H   UNL     1      31.106  84.143  48.762  0.00  0.00    +0.000 HD
ENDBRANCH   6   8
ENDBRANCH   1   6
TORSDOF 2
ENDMDL
MODEL 2
REMARK VINA RESULT:    -3.928      1.699      2.246
REMARK INTER + INTRA:          -4.273
REMARK INTER:                  -4.273
REMARK INTRA:                   0.000
REMARK UNBOUND:                 0.000
REMARK  Name = 
REMARK  2 active torsions:
REMARK  status: ('A' for Active; 'I' for Inactive)
REMARK    1  A    between atoms: O_1  and  C_2
REMARK    2  A    between atoms: C_2  and  C_4
REMARK                            x       y       z     vdW  Elec       q    Type
REMARK                         _______ _______ _______ _____ _____    ______ ____
ROOT
ATOM      1  C   UNL     1      28.973  83.596  49.788  0.00  0.00    +0.000 C 
ATOM      2  O   UNL     1      28.109  84.049  49.050  0.00  0.00    +0.000 OA
ATOM      3  N   UNL     1      28.758  82.716  50.809  0.00  0.00    +0.000 N 
ATOM      4  H   UNL     1      29.537  82.391  51.373  0.00  0.00    +0.000 HD
ATOM      5  H   UNL     1      27.824  82.385  51.005  0.00  0.00    +0.000 HD
ENDROOT
BRANCH   1   6
ATOM      6  C   UNL     1      30.438  84.031  49.580  0.00  0.00    +0.000 C 
ATOM      7  O   UNL     1      30.748  85.143  49.199  0.00  0.00    +0.000 OA
BRANCH   6   8
ATOM      8  O   UNL     1      31.280  83.025  49.878  0.00  0.00    +0.000 OA
ATOM      9  H   UNL     1      31.950  82.948  49.158  0.00  0.00    +0.000 HD
ENDBRANCH   6   8
ENDBRANCH   1   6
TORSDOF 2
ENDMDL
MODEL 3
REMARK VINA RESULT:    -3.902      1.437      1.946
REMARK INTER + INTRA:          -4.244
REMARK INTER:                  -4.244
REMARK INTRA:                   0.000
REMARK UNBOUND:                 0.000
REMARK  Name = 
REMARK  2 active torsions:
REMARK  status: ('A' for Active; 'I' for Inactive)
REMARK    1  A    between atoms: O_1  and  C_2
REMARK    2  A    between atoms: C_2  and  C_4
REMARK                            x       y       z     vdW  Elec       q    Type
REMARK                         _______ _______ _______ _____ _____    ______ ____
ROOT
ATOM      1  C   UNL     1      30.498  84.404  50.063  0.00  0.00    +0.000 C 
ATOM      2  O   UNL     1      30.993  85.289  49.380  0.00  0.00    +0.000 OA
ATOM      3  N   UNL     1      30.928  84.031  51.304  0.00  0.00    +0.000 N 
ATOM      4  H   UNL     1      30.456  83.283  51.803  0.00  0.00    +0.000 HD
ATOM      5  H   UNL     1      31.717  84.497  51.729  0.00  0.00    +0.000 HD
ENDROOT
BRANCH   1   6
ATOM      6  C   UNL     1      29.286  83.624  49.515  0.00  0.00    +0.000 C 
ATOM      7  O   UNL     1      28.279  84.170  49.108  0.00  0.00    +0.000 OA
BRANCH   6   8
ATOM      8  O   UNL     1      29.515  82.298  49.557  0.00  0.00    +0.000 OA
ATOM      9  H   UNL     1      30.080  82.099  50.341  0.00  0.00    +0.000 HD
ENDBRANCH   6   8
ENDBRANCH   1   6
TORSDOF 2
ENDMDL
MODEL 4
REMARK VINA RESULT:    -3.768      1.590      2.624
REMARK INTER + INTRA:          -4.098
REMARK INTER:                  -4.098
REMARK INTRA:                   0.000
REMARK UNBOUND:                 0.000
REMARK  Name = 
REMARK  2 active torsions:
REMARK  status: ('A' for Active; 'I' for Inactive)
REMARK    1  A    between atoms: O_1  and  C_2
REMARK    2  A    between atoms: C_2  and  C_4
REMARK                            x       y       z     vdW  Elec       q    Type
REMARK                         _______ _______ _______ _____ _____    ______ ____
ROOT
ATOM      1  C   UNL     1      30.509  84.624  50.059  0.00  0.00    +0.000 C 
ATOM      2  O   UNL     1      29.787  84.635  49.072  0.00  0.00    +0.000 OA
ATOM      3  N   UNL     1      31.595  85.428  50.254  0.00  0.00    +0.000 N 
ATOM      4  H   UNL     1      32.139  85.351  51.107  0.00  0.00    +0.000 HD
ATOM      5  H   UNL     1      31.859  86.102  49.549  0.00  0.00    +0.000 HD
ENDROOT
BRANCH   1   6
ATOM      6  C   UNL     1      30.200  83.634  51.201  0.00  0.00    +0.000 C 
ATOM      7  O   UNL     1      29.193  83.704  51.879  0.00  0.00    +0.000 OA
BRANCH   6   8
ATOM      8  O   UNL     1      31.182  82.722  51.319  0.00  0.00    +0.000 OA
ATOM      9  H   UNL     1      31.879  82.916  50.649  0.00  0.00    +0.000 HD
ENDBRANCH   6   8
ENDBRANCH   1   6
TORSDOF 2
ENDMDL
MODEL 5
REMARK VINA RESULT:    -3.747      8.733      9.383
REMARK INTER + INTRA:          -4.075
REMARK INTER:                  -4.075
REMARK INTRA:                   0.000
REMARK UNBOUND:                 0.000
REMARK  Name = 
REMARK  2 active torsions:
REMARK  status: ('A' for Active; 'I' for Inactive)
REMARK    1  A    between atoms: O_1  and  C_2
REMARK    2  A    between atoms: C_2  and  C_4
REMARK                            x       y       z     vdW  Elec       q    Type
REMARK                         _______ _______ _______ _____ _____    ______ ____
ROOT
ATOM      1  C   UNL     1      35.523  89.242  46.168  0.00  0.00    +0.000 C 
ATOM      2  O   UNL     1      34.509  88.578  46.005  0.00  0.00    +0.000 OA
ATOM      3  N   UNL     1      36.725  89.011  45.562  0.00  0.00    +0.000 N 
ATOM      4  H   UNL     1      37.517  89.615  45.756  0.00  0.00    +0.000 HD
ATOM      5  H   UNL     1      36.828  88.239  44.919  0.00  0.00    +0.000 HD
ENDROOT
BRANCH   1   6
ATOM      6  C   UNL     1      35.482  90.447  47.129  0.00  0.00    +0.000 C 
ATOM      7  O   UNL     1      36.478  90.904  47.658  0.00  0.00    +0.000 OA
BRANCH   6   8
ATOM      8  O   UNL     1      34.222  90.893  47.280  0.00  0.00    +0.000 OA
ATOM      9  H   UNL     1      34.012  91.510  46.539  0.00  0.00    +0.000 HD
ENDBRANCH   6   8
ENDBRANCH   1   6
TORSDOF 2
ENDMDL
MODEL 6
REMARK VINA RESULT:    -3.602      1.909      2.116
REMARK INTER + INTRA:          -3.918
REMARK INTER:                  -3.918
REMARK INTRA:                   0.000
REMARK UNBOUND:                 0.000
REMARK  Name = 
REMARK  2 active torsions:
REMARK  status: ('A' for Active; 'I' for Inactive)
REMARK    1  A    between atoms: O_1  and  C_2
REMARK    2  A    between atoms: C_2  and  C_4
REMARK                            x       y       z     vdW  Elec       q    Type
REMARK                         _______ _______ _______ _____ _____    ______ ____
ROOT
ATOM      1  C   UNL     1      30.751  84.917  51.376  0.00  0.00    +0.000 C 
ATOM      2  O   UNL     1      30.307  84.329  52.352  0.00  0.00    +0.000 OA
ATOM      3  N   UNL     1      31.390  86.123  51.404  0.00  0.00    +0.000 N 
ATOM      4  H   UNL     1      31.728  86.540  50.543  0.00  0.00    +0.000 HD
ATOM      5  H   UNL     1      31.528  86.604  52.282  0.00  0.00    +0.000 HD
ENDROOT
BRANCH   1   6
ATOM      6  C   UNL     1      30.599  84.276  49.982  0.00  0.00    +0.000 C 
ATOM      7  O   UNL     1      30.260  84.907  48.999  0.00  0.00    +0.000 OA
BRANCH   6   8
ATOM      8  O   UNL     1      30.889  82.963  50.027  0.00  0.00    +0.000 OA
ATOM      9  H   UNL     1      31.816  82.854  50.346  0.00  0.00    +0.000 HD
ENDBRANCH   6   8
ENDBRANCH   1   6
TORSDOF 2
ENDMDL
MODEL 7
REMARK VINA RESULT:    -3.449      1.567      2.123
REMARK INTER + INTRA:          -3.751
REMARK INTER:                  -3.751
REMARK INTRA:                   0.000
REMARK UNBOUND:                 0.000
REMARK  Name = 
REMARK  2 active torsions:
REMARK  status: ('A' for Active; 'I' for Inactive)
REMARK    1  A    between atoms: O_1  and  C_2
REMARK    2  A    between atoms: C_2  and  C_4
REMARK                            x       y       z     vdW  Elec       q    Type
REMARK                         _______ _______ _______ _____ _____    ______ ____
ROOT
ATOM      1  C   UNL     1      30.342  83.754  50.874  0.00  0.00    +0.000 C 
ATOM      2  O   UNL     1      29.520  83.470  51.733  0.00  0.00    +0.000 OA
ATOM      3  N   UNL     1      30.826  82.896  49.929  0.00  0.00    +0.000 N 
ATOM      4  H   UNL     1      31.509  83.218  49.251  0.00  0.00    +0.000 HD
ATOM      5  H   UNL     1      30.507  81.938  49.903  0.00  0.00    +0.000 HD
ENDROOT
BRANCH   1   6
ATOM      6  C   UNL     1      30.901  85.191  50.818  0.00  0.00    +0.000 C 
ATOM      7  O   UNL     1      31.014  85.893  51.803  0.00  0.00    +0.000 OA
BRANCH   6   8
ATOM      8  O   UNL     1      31.229  85.525  49.556  0.00  0.00    +0.000 OA
ATOM      9  H   UNL     1      30.460  85.980  49.138  0.00  0.00    +0.000 HD
ENDBRANCH   6   8
ENDBRANCH   1   6
TORSDOF 2
ENDMDL
MODEL 8
REMARK VINA RESULT:    -3.329      8.676      9.497
REMARK INTER + INTRA:          -3.620
REMARK INTER:                  -3.620
REMARK INTRA:                   0.000
REMARK UNBOUND:                 0.000
REMARK  Name = 
REMARK  2 active torsions:
REMARK  status: ('A' for Active; 'I' for Inactive)
REMARK    1  A    between atoms: O_1  and  C_2
REMARK    2  A    between atoms: C_2  and  C_4
REMARK                            x       y       z     vdW  Elec       q    Type
REMARK                         _______ _______ _______ _____ _____    ______ ____
ROOT
ATOM      1  C   UNL     1      35.648  91.053  47.565  0.00  0.00    +0.000 C 
ATOM      2  O   UNL     1      36.752  91.013  48.090  0.00  0.00    +0.000 OA
ATOM      3  N   UNL     1      34.802  92.124  47.586  0.00  0.00    +0.000 N 
ATOM      4  H   UNL     1      33.901  92.070  47.122  0.00  0.00    +0.000 HD
ATOM      5  H   UNL     1      35.070  92.973  48.064  0.00  0.00    +0.000 HD
ENDROOT
BRANCH   1   6
ATOM      6  C   UNL     1      35.135  89.813  46.806  0.00  0.00    +0.000 C 
ATOM      7  O   UNL     1      35.836  89.160  46.058  0.00  0.00    +0.000 OA
BRANCH   6   8
ATOM      8  O   UNL     1      33.841  89.580  47.094  0.00  0.00    +0.000 OA
ATOM      9  H   UNL     1      33.704  89.706  48.063  0.00  0.00    +0.000 HD
ENDBRANCH   6   8
ENDBRANCH   1   6
TORSDOF 2
ENDMDL
MODEL 9
REMARK VINA RESULT:    -3.173     11.562     11.997
REMARK INTER + INTRA:          -3.451
REMARK INTER:                  -3.451
REMARK INTRA:                   0.000
REMARK UNBOUND:                 0.000
REMARK  Name = 
REMARK  2 active torsions:
REMARK  status: ('A' for Active; 'I' for Inactive)
REMARK    1  A    between atoms: O_1  and  C_2
REMARK    2  A    between atoms: C_2  and  C_4
REMARK                            x       y       z     vdW  Elec       q    Type
REMARK                         _______ _______ _______ _____ _____    ______ ____
ROOT
ATOM      1  C   UNL     1      29.367  96.328  50.687  0.00  0.00    +0.000 C 
ATOM      2  O   UNL     1      29.586  97.172  49.830  0.00  0.00    +0.000 OA
ATOM      3  N   UNL     1      28.976  96.588  51.969  0.00  0.00    +0.000 N 
ATOM      4  H   UNL     1      28.815  95.823  52.617  0.00  0.00    +0.000 HD
ATOM      5  H   UNL     1      28.845  97.541  52.276  0.00  0.00    +0.000 HD
ENDROOT
BRANCH   1   6
ATOM      6  C   UNL     1      29.535  94.837  50.330  0.00  0.00    +0.000 C 
ATOM      7  O   UNL     1      30.617  94.329  50.111  0.00  0.00    +0.000 OA
BRANCH   6   8
ATOM      8  O   UNL     1      28.340  94.217  50.303  0.00  0.00    +0.000 OA
ATOM      9  H   UNL     1      28.456  93.291  50.620  0.00  0.00    +0.000 HD
ENDBRANCH   6   8
ENDBRANCH   1   6
TORSDOF 2
ENDMDL
