MODEL 1
REMARK VINA RESULT:    -6.187      0.000      0.000
REMARK INTER + INTRA:          -7.546
REMARK INTER:                  -7.452
REMARK INTRA:                  -0.094
REMARK UNBOUND:                -0.094
REMARK  Name = 
REMARK  5 active torsions:
REMARK  status: ('A' for Active; 'I' for Inactive)
REMARK    1  A    between atoms: O_1  and  C_2
REMARK    2  A    between atoms: C_2  and  C_4
REMARK    3  A    between atoms: C_4  and  O_5
REMARK    4  A    between atoms: C_4  and  C_6
REMARK    5  A    between atoms: C_9  and  O_10
REMARK                            x       y       z     vdW  Elec       q    Type
REMARK                         _______ _______ _______ _____ _____    ______ ____
ROOT
ATOM      1  C   UNL     1      15.358  38.750  56.972  0.00  0.00    +0.000 A 
ATOM      2  C   UNL     1      16.034  37.660  57.554  0.00  0.00    +0.000 A 
ATOM      3  C   UNL     1      16.277  36.487  56.834  0.00  0.00    +0.000 A 
ATOM      4  C   UNL     1      15.834  36.386  55.523  0.00  0.00    +0.000 A 
ATOM      5  C   UNL     1      15.142  37.434  54.930  0.00  0.00    +0.000 A 
ATOM      6  C   UNL     1      14.895  38.606  55.652  0.00  0.00    +0.000 A 
ENDROOT
BRANCH   4   7
ATOM      7  O   UNL     1      16.053  35.265  54.782  0.00  0.00    +0.000 OA
ATOM      8  H   UNL     1      15.493  34.552  55.127  0.00  0.00    +0.000 HD
ENDBRANCH   4   7
BRANCH   1   9
ATOM      9  C   UNL     1      15.099  39.992  57.808  0.00  0.00    +0.000 C 
BRANCH   9  10
ATOM     10  C   UNL     1      15.734  41.291  57.265  0.00  0.00    +0.000 C 
ATOM     11  O   UNL     1      16.834  41.743  57.538  0.00  0.00    +0.000 OA
BRANCH  10  12
ATOM     12  O   UNL     1      14.870  41.943  56.432  0.00  0.00    +0.000 OA
ATOM     13  H   UNL     1      14.645  41.344  55.682  0.00  0.00    +0.000 HD
ENDBRANCH  10  12
ENDBRANCH   9  10
BRANCH   9  14
ATOM     14  O   UNL     1      13.697  40.281  57.979  0.00  0.00    +0.000 OA
ATOM     15  H   UNL     1      13.216  39.486  57.681  0.00  0.00    +0.000 HD
ENDBRANCH   9  14
ENDBRANCH   1   9
TORSDOF 5
ENDMDL
MODEL 2
REMARK VINA RESULT:    -6.076      2.683      3.992
REMARK INTER + INTRA:          -7.414
REMARK INTER:                  -7.271
REMARK INTRA:                  -0.142
REMARK UNBOUND:                -0.094
REMARK  Name = 
REMARK  5 active torsions:
REMARK  status: ('A' for Active; 'I' for Inactive)
REMARK    1  A    between atoms: O_1  and  C_2
REMARK    2  A    between atoms: C_2  and  C_4
REMARK    3  A    between atoms: C_4  and  O_5
REMARK    4  A    between atoms: C_4  and  C_6
REMARK    5  A    between atoms: C_9  and  O_10
REMARK                            x       y       z     vdW  Elec       q    Type
REMARK                         _______ _______ _______ _____ _____    ______ ____
ROOT
ATOM      1  C   UNL     1      16.247  36.913  56.354  0.00  0.00    +0.000 A 
ATOM      2  C   UNL     1      17.075  36.111  55.545  0.00  0.00    +0.000 A 
ATOM      3  C   UNL     1      18.401  35.844  55.898  0.00  0.00    +0.000 A 
ATOM      4  C   UNL     1      18.919  36.391  57.064  0.00  0.00    +0.000 A 
ATOM      5  C   UNL     1      18.135  37.207  57.869  0.00  0.00    +0.000 A 
ATOM      6  C   UNL     1      16.809  37.476  57.512  0.00  0.00    +0.000 A 
ENDROOT
BRANCH   4   7
ATOM      7  O   UNL     1      20.203  36.155  57.451  0.00  0.00    +0.000 OA
ATOM      8  H   UNL     1      20.776  36.826  57.048  0.00  0.00    +0.000 HD
ENDBRANCH   4   7
BRANCH   1   9
ATOM      9  C   UNL     1      14.821  37.189  55.909  0.00  0.00    +0.000 C 
BRANCH   9  10
ATOM     10  C   UNL     1      13.767  37.168  57.037  0.00  0.00    +0.000 C 
ATOM     11  O   UNL     1      13.097  38.107  57.437  0.00  0.00    +0.000 OA
BRANCH  10  12
ATOM     12  O   UNL     1      13.685  35.928  57.602  0.00  0.00    +0.000 OA
ATOM     13  H   UNL     1      14.212  35.926  58.435  0.00  0.00    +0.000 HD
ENDBRANCH  10  12
ENDBRANCH   9  10
BRANCH   9  14
ATOM     14  O   UNL     1      14.667  38.462  55.250  0.00  0.00    +0.000 OA
ATOM     15  H   UNL     1      14.912  39.141  55.907  0.00  0.00    +0.000 HD
ENDBRANCH   9  14
ENDBRANCH   1   9
TORSDOF 5
ENDMDL
MODEL 3
REMARK VINA RESULT:    -6.054      2.853      5.014
REMARK INTER + INTRA:          -7.387
REMARK INTER:                  -7.316
REMARK INTRA:                  -0.071
REMARK UNBOUND:                -0.094
REMARK  Name = 
REMARK  5 active torsions:
REMARK  status: ('A' for Active; 'I' for Inactive)
REMARK    1  A    between atoms: O_1  and  C_2
REMARK    2  A    between atoms: C_2  and  C_4
REMARK    3  A    between atoms: C_4  and  O_5
REMARK    4  A    between atoms: C_4  and  C_6
REMARK    5  A    between atoms: C_9  and  O_10
REMARK                            x       y       z     vdW  Elec       q    Type
REMARK                         _______ _______ _______ _____ _____    ______ ____
ROOT
ATOM      1  C   UNL     1      17.341  36.825  57.044  0.00  0.00    +0.000 A 
ATOM      2  C   UNL     1      17.182  36.227  55.779  0.00  0.00    +0.000 A 
ATOM      3  C   UNL     1      16.145  36.604  54.920  0.00  0.00    +0.000 A 
ATOM      4  C   UNL     1      15.245  37.579  55.326  0.00  0.00    +0.000 A 
ATOM      5  C   UNL     1      15.360  38.168  56.578  0.00  0.00    +0.000 A 
ATOM      6  C   UNL     1      16.396  37.787  57.438  0.00  0.00    +0.000 A 
ENDROOT
BRANCH   4   7
ATOM      7  O   UNL     1      14.222  37.982  54.522  0.00  0.00    +0.000 OA
ATOM      8  H   UNL     1      13.516  38.346  55.079  0.00  0.00    +0.000 HD
ENDBRANCH   4   7
BRANCH   1   9
ATOM      9  C   UNL     1      18.471  36.358  57.946  0.00  0.00    +0.000 C 
BRANCH   9  10
ATOM     10  C   UNL     1      18.406  34.874  58.365  0.00  0.00    +0.000 C 
ATOM     11  O   UNL     1      18.680  33.902  57.679  0.00  0.00    +0.000 OA
BRANCH  10  12
ATOM     12  O   UNL     1      17.944  34.750  59.643  0.00  0.00    +0.000 OA
ATOM     13  H   UNL     1      18.407  33.994  60.073  0.00  0.00    +0.000 HD
ENDBRANCH  10  12
ENDBRANCH   9  10
BRANCH   9  14
ATOM     14  O   UNL     1      19.777  36.547  57.365  0.00  0.00    +0.000 OA
ATOM     15  H   UNL     1      20.057  37.449  57.610  0.00  0.00    +0.000 HD
ENDBRANCH   9  14
ENDBRANCH   1   9
TORSDOF 5
ENDMDL
MODEL 4
REMARK VINA RESULT:    -5.994      3.168      4.693
REMARK INTER + INTRA:          -7.315
REMARK INTER:                  -7.150
REMARK INTRA:                  -0.165
REMARK UNBOUND:                -0.094
REMARK  Name = 
REMARK  5 active torsions:
REMARK  status: ('A' for Active; 'I' for Inactive)
REMARK    1  A    between atoms: O_1  and  C_2
REMARK    2  A    between atoms: C_2  and  C_4
REMARK    3  A    between atoms: C_4  and  O_5
REMARK    4  A    between atoms: C_4  and  C_6
REMARK    5  A    between atoms: C_9  and  O_10
REMARK                            x       y       z     vdW  Elec       q    Type
REMARK                         _______ _______ _______ _____ _____    ______ ____
ROOT
ATOM      1  C   UNL     1      17.195  36.036  57.144  0.00  0.00    +0.000 A 
ATOM      2  C   UNL     1      16.561  37.174  57.679  0.00  0.00    +0.000 A 
ATOM      3  C   UNL     1      15.665  37.932  56.919  0.00  0.00    +0.000 A 
ATOM      4  C   UNL     1      15.404  37.565  55.606  0.00  0.00    +0.000 A 
ATOM      5  C   UNL     1      16.034  36.463  55.043  0.00  0.00    +0.000 A 
ATOM      6  C   UNL     1      16.933  35.708  55.803  0.00  0.00    +0.000 A 
ENDROOT
BRANCH   4   7
ATOM      7  O   UNL     1      14.535  38.270  54.829  0.00  0.00    +0.000 OA
ATOM      8  H   UNL     1      14.979  39.075  54.521  0.00  0.00    +0.000 HD
ENDBRANCH   4   7
BRANCH   1   9
ATOM      9  C   UNL     1      18.178  35.263  58.007  0.00  0.00    +0.000 C 
BRANCH   9  10
ATOM     10  C   UNL     1      19.445  36.044  58.418  0.00  0.00    +0.000 C 
ATOM     11  O   UNL     1      19.759  36.402  59.542  0.00  0.00    +0.000 OA
BRANCH  10  12
ATOM     12  O   UNL     1      20.204  36.347  57.324  0.00  0.00    +0.000 OA
ATOM     13  H   UNL     1      20.916  35.671  57.237  0.00  0.00    +0.000 HD
ENDBRANCH  10  12
ENDBRANCH   9  10
BRANCH   9  14
ATOM     14  O   UNL     1      17.599  34.780  59.236  0.00  0.00    +0.000 OA
ATOM     15  H   UNL     1      16.758  35.262  59.349  0.00  0.00    +0.000 HD
ENDBRANCH   9  14
ENDBRANCH   1   9
TORSDOF 5
ENDMDL
MODEL 5
REMARK VINA RESULT:    -5.982      2.861      5.412
REMARK INTER + INTRA:          -7.300
REMARK INTER:                  -7.180
REMARK INTRA:                  -0.120
REMARK UNBOUND:                -0.094
REMARK  Name = 
REMARK  5 active torsions:
REMARK  status: ('A' for Active; 'I' for Inactive)
REMARK    1  A    between atoms: O_1  and  C_2
REMARK    2  A    between atoms: C_2  and  C_4
REMARK    3  A    between atoms: C_4  and  O_5
REMARK    4  A    between atoms: C_4  and  C_6
REMARK    5  A    between atoms: C_9  and  O_10
REMARK                            x       y       z     vdW  Elec       q    Type
REMARK                         _______ _______ _______ _____ _____    ______ ____
ROOT
ATOM      1  C   UNL     1      17.610  36.265  56.688  0.00  0.00    +0.000 A 
ATOM      2  C   UNL     1      16.837  37.140  57.477  0.00  0.00    +0.000 A 
ATOM      3  C   UNL     1      15.708  37.781  56.959  0.00  0.00    +0.000 A 
ATOM      4  C   UNL     1      15.346  37.562  55.637  0.00  0.00    +0.000 A 
ATOM      5  C   UNL     1      16.102  36.726  54.828  0.00  0.00    +0.000 A 
ATOM      6  C   UNL     1      17.234  36.087  55.346  0.00  0.00    +0.000 A 
ENDROOT
BRANCH   4   7
ATOM      7  O   UNL     1      14.251  38.161  55.091  0.00  0.00    +0.000 OA
ATOM      8  H   UNL     1      14.544  38.927  54.573  0.00  0.00    +0.000 HD
ENDBRANCH   4   7
BRANCH   1   9
ATOM      9  C   UNL     1      18.841  35.614  57.296  0.00  0.00    +0.000 C 
BRANCH   9  10
ATOM     10  C   UNL     1      19.332  34.340  56.574  0.00  0.00    +0.000 C 
ATOM     11  O   UNL     1      20.141  34.275  55.663  0.00  0.00    +0.000 OA
BRANCH  10  12
ATOM     12  O   UNL     1      18.701  33.232  57.063  0.00  0.00    +0.000 OA
ATOM     13  H   UNL     1      19.369  32.517  57.182  0.00  0.00    +0.000 HD
ENDBRANCH  10  12
ENDBRANCH   9  10
BRANCH   9  14
ATOM     14  O   UNL     1      19.980  36.496  57.356  0.00  0.00    +0.000 OA
ATOM     15  H   UNL     1      20.759  35.926  57.503  0.00  0.00    +0.000 HD
ENDBRANCH   9  14
ENDBRANCH   1   9
TORSDOF 5
ENDMDL
MODEL 6
REMARK VINA RESULT:    -5.959      4.821      5.592
REMARK INTER + INTRA:          -7.272
REMARK INTER:                  -7.112
REMARK INTRA:                  -0.160
REMARK UNBOUND:                -0.094
REMARK  Name = 
REMARK  5 active torsions:
REMARK  status: ('A' for Active; 'I' for Inactive)
REMARK    1  A    between atoms: O_1  and  C_2
REMARK    2  A    between atoms: C_2  and  C_4
REMARK    3  A    between atoms: C_4  and  O_5
REMARK    4  A    between atoms: C_4  and  C_6
REMARK    5  A    between atoms: C_9  and  O_10
REMARK                            x       y       z     vdW  Elec       q    Type
REMARK                         _______ _______ _______ _____ _____    ______ ____
ROOT
ATOM      1  C   UNL     1      18.764  35.413  55.970  0.00  0.00    +0.000 A 
ATOM      2  C   UNL     1      19.438  34.188  55.803  0.00  0.00    +0.000 A 
ATOM      3  C   UNL     1      19.398  33.495  54.589  0.00  0.00    +0.000 A 
ATOM      4  C   UNL     1      18.670  34.018  53.530  0.00  0.00    +0.000 A 
ATOM      5  C   UNL     1      17.974  35.210  53.672  0.00  0.00    +0.000 A 
ATOM      6  C   UNL     1      18.012  35.901  54.888  0.00  0.00    +0.000 A 
ENDROOT
BRANCH   4   7
ATOM      7  O   UNL     1      18.607  33.381  52.327  0.00  0.00    +0.000 OA
ATOM      8  H   UNL     1      18.356  34.027  51.648  0.00  0.00    +0.000 HD
ENDBRANCH   4   7
BRANCH   1   9
ATOM      9  C   UNL     1      18.822  36.111  57.319  0.00  0.00    +0.000 C 
BRANCH   9  10
ATOM     10  C   UNL     1      18.124  35.362  58.474  0.00  0.00    +0.000 C 
ATOM     11  O   UNL     1      18.615  35.034  59.542  0.00  0.00    +0.000 OA
BRANCH  10  12
ATOM     12  O   UNL     1      16.836  35.050  58.143  0.00  0.00    +0.000 OA
ATOM     13  H   UNL     1      16.785  34.923  57.167  0.00  0.00    +0.000 HD
ENDBRANCH  10  12
ENDBRANCH   9  10
BRANCH   9  14
ATOM     14  O   UNL     1      20.167  36.366  57.771  0.00  0.00    +0.000 OA
ATOM     15  H   UNL     1      20.092  37.017  58.494  0.00  0.00    +0.000 HD
ENDBRANCH   9  14
ENDBRANCH   1   9
TORSDOF 5
ENDMDL
MODEL 7
REMARK VINA RESULT:    -5.940      2.662      4.808
REMARK INTER + INTRA:          -7.249
REMARK INTER:                  -7.139
REMARK INTRA:                  -0.110
REMARK UNBOUND:                -0.094
REMARK  Name = 
REMARK  5 active torsions:
REMARK  status: ('A' for Active; 'I' for Inactive)
REMARK    1  A    between atoms: O_1  and  C_2
REMARK    2  A    between atoms: C_2  and  C_4
REMARK    3  A    between atoms: C_4  and  O_5
REMARK    4  A    between atoms: C_4  and  C_6
REMARK    5  A    between atoms: C_9  and  O_10
REMARK                            x       y       z     vdW  Elec       q    Type
REMARK                         _______ _______ _______ _____ _____    ______ ____
ROOT
ATOM      1  C   UNL     1      16.631  36.472  57.359  0.00  0.00    +0.000 A 
ATOM      2  C   UNL     1      15.339  35.912  57.325  0.00  0.00    +0.000 A 
ATOM      3  C   UNL     1      14.198  36.707  57.469  0.00  0.00    +0.000 A 
ATOM      4  C   UNL     1      14.339  38.074  57.662  0.00  0.00    +0.000 A 
ATOM      5  C   UNL     1      15.599  38.651  57.727  0.00  0.00    +0.000 A 
ATOM      6  C   UNL     1      16.741  37.854  57.586  0.00  0.00    +0.000 A 
ENDROOT
BRANCH   4   7
ATOM      7  O   UNL     1      13.255  38.888  57.803  0.00  0.00    +0.000 OA
ATOM      8  H   UNL     1      12.718  38.829  56.997  0.00  0.00    +0.000 HD
ENDBRANCH   4   7
BRANCH   1   9
ATOM      9  C   UNL     1      17.837  35.558  57.221  0.00  0.00    +0.000 C 
BRANCH   9  10
ATOM     10  C   UNL     1      19.207  36.251  57.388  0.00  0.00    +0.000 C 
ATOM     11  O   UNL     1      19.767  36.532  58.435  0.00  0.00    +0.000 OA
BRANCH  10  12
ATOM     12  O   UNL     1      19.740  36.572  56.173  0.00  0.00    +0.000 OA
ATOM     13  H   UNL     1      20.618  36.134  56.088  0.00  0.00    +0.000 HD
ENDBRANCH  10  12
ENDBRANCH   9  10
BRANCH   9  14
ATOM     14  O   UNL     1      17.832  34.464  58.160  0.00  0.00    +0.000 OA
ATOM     15  H   UNL     1      18.710  34.043  58.092  0.00  0.00    +0.000 HD
ENDBRANCH   9  14
ENDBRANCH   1   9
TORSDOF 5
ENDMDL
MODEL 8
REMARK VINA RESULT:    -5.742      2.785      4.334
REMARK INTER + INTRA:          -7.010
REMARK INTER:                  -6.951
REMARK INTRA:                  -0.059
REMARK UNBOUND:                -0.094
REMARK  Name = 
REMARK  5 active torsions:
REMARK  status: ('A' for Active; 'I' for Inactive)
REMARK    1  A    between atoms: O_1  and  C_2
REMARK    2  A    between atoms: C_2  and  C_4
REMARK    3  A    between atoms: C_4  and  O_5
REMARK    4  A    between atoms: C_4  and  C_6
REMARK    5  A    between atoms: C_9  and  O_10
REMARK                            x       y       z     vdW  Elec       q    Type
REMARK                         _______ _______ _______ _____ _____    ______ ____
ROOT
ATOM      1  C   UNL     1      16.751  36.498  56.022  0.00  0.00    +0.000 A 
ATOM      2  C   UNL     1      16.769  36.249  54.636  0.00  0.00    +0.000 A 
ATOM      3  C   UNL     1      17.916  35.767  53.998  0.00  0.00    +0.000 A 
ATOM      4  C   UNL     1      19.065  35.540  54.742  0.00  0.00    +0.000 A 
ATOM      5  C   UNL     1      19.086  35.801  56.105  0.00  0.00    +0.000 A 
ATOM      6  C   UNL     1      17.939  36.287  56.742  0.00  0.00    +0.000 A 
ENDROOT
BRANCH   4   7
ATOM      7  O   UNL     1      20.204  35.067  54.164  0.00  0.00    +0.000 OA
ATOM      8  H   UNL     1      19.993  34.247  53.690  0.00  0.00    +0.000 HD
ENDBRANCH   4   7
BRANCH   1   9
ATOM      9  C   UNL     1      15.484  37.044  56.659  0.00  0.00    +0.000 C 
BRANCH   9  10
ATOM     10  C   UNL     1      14.695  36.034  57.519  0.00  0.00    +0.000 C 
ATOM     11  O   UNL     1      15.148  35.099  58.160  0.00  0.00    +0.000 OA
BRANCH  10  12
ATOM     12  O   UNL     1      13.354  36.283  57.453  0.00  0.00    +0.000 OA
ATOM     13  H   UNL     1      13.020  35.974  56.579  0.00  0.00    +0.000 HD
ENDBRANCH  10  12
ENDBRANCH   9  10
BRANCH   9  14
ATOM     14  O   UNL     1      15.721  38.185  57.510  0.00  0.00    +0.000 OA
ATOM     15  H   UNL     1      14.852  38.436  57.876  0.00  0.00    +0.000 HD
ENDBRANCH   9  14
ENDBRANCH   1   9
TORSDOF 5
ENDMDL
MODEL 9
REMARK VINA RESULT:    -5.739      3.401      6.713
REMARK INTER + INTRA:          -7.007
REMARK INTER:                  -6.852
REMARK INTRA:                  -0.155
REMARK UNBOUND:                -0.094
REMARK  Name = 
REMARK  5 active torsions:
REMARK  status: ('A' for Active; 'I' for Inactive)
REMARK    1  A    between atoms: O_1  and  C_2
REMARK    2  A    between atoms: C_2  and  C_4
REMARK    3  A    between atoms: C_4  and  O_5
REMARK    4  A    between atoms: C_4  and  C_6
REMARK    5  A    between atoms: C_9  and  O_10
REMARK                            x       y       z     vdW  Elec       q    Type
REMARK                         _______ _______ _______ _____ _____    ______ ____
ROOT
ATOM      1  C   UNL     1      18.312  35.099  55.270  0.00  0.00    +0.000 A 
ATOM      2  C   UNL     1      17.190  35.541  54.544  0.00  0.00    +0.000 A 
ATOM      3  C   UNL     1      16.254  36.413  55.109  0.00  0.00    +0.000 A 
ATOM      4  C   UNL     1      16.427  36.843  56.417  0.00  0.00    +0.000 A 
ATOM      5  C   UNL     1      17.509  36.404  57.167  0.00  0.00    +0.000 A 
ATOM      6  C   UNL     1      18.443  35.528  56.602  0.00  0.00    +0.000 A 
ENDROOT
BRANCH   4   7
ATOM      7  O   UNL     1      15.544  37.696  57.008  0.00  0.00    +0.000 OA
ATOM      8  H   UNL     1      14.697  37.236  57.119  0.00  0.00    +0.000 HD
ENDBRANCH   4   7
BRANCH   1   9
ATOM      9  C   UNL     1      19.284  34.133  54.614  0.00  0.00    +0.000 C 
BRANCH   9  10
ATOM     10  C   UNL     1      19.970  33.139  55.576  0.00  0.00    +0.000 C 
ATOM     11  O   UNL     1      21.102  33.212  56.027  0.00  0.00    +0.000 OA
BRANCH  10  12
ATOM     12  O   UNL     1      19.146  32.086  55.854  0.00  0.00    +0.000 OA
ATOM     13  H   UNL     1      18.214  32.406  55.850  0.00  0.00    +0.000 HD
ENDBRANCH  10  12
ENDBRANCH   9  10
BRANCH   9  14
ATOM     14  O   UNL     1      18.678  33.328  53.583  0.00  0.00    +0.000 OA
ATOM     15  H   UNL     1      18.111  32.679  54.041  0.00  0.00    +0.000 HD
ENDBRANCH   9  14
ENDBRANCH   1   9
TORSDOF 5
ENDMDL
