MODEL 1
REMARK VINA RESULT:    -9.796      0.000      0.000
REMARK INTER + INTRA:         -14.716
REMARK INTER:                 -13.518
REMARK INTRA:                  -1.198
REMARK UNBOUND:                -1.198
REMARK  Name = 
REMARK  10 active torsions:
REMARK  status: ('A' for Active; 'I' for Inactive)
REMARK    1  A    between atoms: C_1  and  C_2
REMARK    2  A    between atoms: C_2  and  C_3
REMARK    3  A    between atoms: C_3  and  C_4
REMARK    4  A    between atoms: C_5  and  O_26
REMARK    5  A    between atoms: C_6  and  O_25
REMARK    6  A    between atoms: C_7  and  C_22
REMARK    7  A    between atoms: C_11  and  C_21
REMARK    8  A    between atoms: C_12  and  C_14
REMARK    9  A    between atoms: C_14  and  C_15
REMARK   10  A    between atoms: C_22  and  O_24
REMARK                            x       y       z     vdW  Elec       q    Type
REMARK                         _______ _______ _______ _____ _____    ______ ____
ROOT
ATOM      1  C   UNL     1      18.478  35.085  54.848  0.00  0.00    +0.000 A 
ATOM      2  C   UNL     1      19.530  34.520  55.578  0.00  0.00    +0.000 A 
ATOM      3  C   UNL     1      19.562  34.582  56.971  0.00  0.00    +0.000 A 
ATOM      4  C   UNL     1      18.549  35.204  57.711  0.00  0.00    +0.000 A 
ATOM      5  C   UNL     1      17.473  35.830  56.979  0.00  0.00    +0.000 A 
ATOM      6  C   UNL     1      17.460  35.785  55.561  0.00  0.00    +0.000 A 
ATOM      7  C   UNL     1      16.430  36.494  54.873  0.00  0.00    +0.000 A 
ATOM      8  C   UNL     1      15.505  37.325  55.522  0.00  0.00    +0.000 A 
ATOM      9  C   UNL     1      15.520  37.395  56.903  0.00  0.00    +0.000 A 
ATOM     10  C   UNL     1      16.427  36.564  57.602  0.00  0.00    +0.000 A 
ATOM     11  C   UNL     1      14.554  38.152  54.696  0.00  0.00    +0.000 C 
ENDROOT
BRANCH   4  12
ATOM     12  C   UNL     1      18.654  35.285  59.228  0.00  0.00    +0.000 C 
ATOM     13  O   UNL     1      17.964  34.669  60.012  0.00  0.00    +0.000 OA
BRANCH  12  14
ATOM     14  O   UNL     1      19.600  36.132  59.705  0.00  0.00    +0.000 OA
ATOM     15  H   UNL     1      19.552  37.027  59.305  0.00  0.00    +0.000 HD
ENDBRANCH  12  14
ENDBRANCH   4  12
BRANCH   3  16
ATOM     16  O   UNL     1      20.668  34.029  57.583  0.00  0.00    +0.000 OA
ATOM     17  H   UNL     1      21.320  34.767  57.619  0.00  0.00    +0.000 HD
ENDBRANCH   3  16
BRANCH   2  18
ATOM     18  O   UNL     1      20.617  33.900  55.013  0.00  0.00    +0.000 OA
ATOM     19  H   UNL     1      20.564  32.941  55.160  0.00  0.00    +0.000 HD
ENDBRANCH   2  18
BRANCH   9  20
ATOM     20  C   UNL     1      14.665  38.392  57.682  0.00  0.00    +0.000 C 
BRANCH  20  21
ATOM     21  C   UNL     1      15.320  39.727  57.938  0.00  0.00    +0.000 A 
ATOM     22  C   UNL     1      16.705  39.813  58.114  0.00  0.00    +0.000 A 
ATOM     23  C   UNL     1      17.281  40.976  58.611  0.00  0.00    +0.000 A 
ATOM     24  C   UNL     1      16.488  42.097  58.854  0.00  0.00    +0.000 A 
ATOM     25  C   UNL     1      15.127  42.061  58.560  0.00  0.00    +0.000 A 
ATOM     26  C   UNL     1      14.539  40.886  58.105  0.00  0.00    +0.000 A 
ENDBRANCH  20  21
ENDBRANCH   9  20
BRANCH   1  27
ATOM     27  C   UNL     1      18.470  35.013  53.332  0.00  0.00    +0.000 C 
BRANCH  27  29
ATOM     28  C   UNL     1      16.829  33.324  52.442  0.00  0.00    +0.000 C 
ATOM     29  C   UNL     1      18.274  33.579  52.835  0.00  0.00    +0.000 C 
ENDBRANCH  27  29
ENDBRANCH   1  27
TORSDOF 8
ENDMDL
MODEL 2
REMARK VINA RESULT:    -7.625      2.965      7.350
REMARK INTER + INTRA:         -11.721
REMARK INTER:                 -10.531
REMARK INTRA:                  -1.190
REMARK UNBOUND:                -1.198
REMARK  Name = 
REMARK  10 active torsions:
REMARK  status: ('A' for Active; 'I' for Inactive)
REMARK    1  A    between atoms: C_1  and  C_2
REMARK    2  A    between atoms: C_2  and  C_3
REMARK    3  A    between atoms: C_3  and  C_4
REMARK    4  A    between atoms: C_5  and  O_26
REMARK    5  A    between atoms: C_6  and  O_25
REMARK    6  A    between atoms: C_7  and  C_22
REMARK    7  A    between atoms: C_11  and  C_21
REMARK    8  A    between atoms: C_12  and  C_14
REMARK    9  A    between atoms: C_14  and  C_15
REMARK   10  A    between atoms: C_22  and  O_24
REMARK                            x       y       z     vdW  Elec       q    Type
REMARK                         _______ _______ _______ _____ _____    ______ ____
ROOT
ATOM      1  C   UNL     1      15.044  40.428  58.306  0.00  0.00    +0.000 A 
ATOM      2  C   UNL     1      13.761  40.014  57.932  0.00  0.00    +0.000 A 
ATOM      3  C   UNL     1      13.500  38.691  57.576  0.00  0.00    +0.000 A 
ATOM      4  C   UNL     1      14.500  37.710  57.577  0.00  0.00    +0.000 A 
ATOM      5  C   UNL     1      15.840  38.121  57.920  0.00  0.00    +0.000 A 
ATOM      6  C   UNL     1      16.104  39.474  58.256  0.00  0.00    +0.000 A 
ATOM      7  C   UNL     1      17.457  39.858  58.498  0.00  0.00    +0.000 A 
ATOM      8  C   UNL     1      18.546  38.995  58.305  0.00  0.00    +0.000 A 
ATOM      9  C   UNL     1      18.305  37.680  57.955  0.00  0.00    +0.000 A 
ATOM     10  C   UNL     1      16.961  37.247  57.880  0.00  0.00    +0.000 A 
ATOM     11  C   UNL     1      19.945  39.538  58.438  0.00  0.00    +0.000 C 
ENDROOT
BRANCH   4  12
ATOM     12  C   UNL     1      14.173  36.290  57.136  0.00  0.00    +0.000 C 
ATOM     13  O   UNL     1      14.743  35.681  56.256  0.00  0.00    +0.000 OA
BRANCH  12  14
ATOM     14  O   UNL     1      13.148  35.692  57.795  0.00  0.00    +0.000 OA
ATOM     15  H   UNL     1      12.938  34.797  57.449  0.00  0.00    +0.000 HD
ENDBRANCH  12  14
ENDBRANCH   4  12
BRANCH   3  16
ATOM     16  O   UNL     1      12.208  38.406  57.185  0.00  0.00    +0.000 OA
ATOM     17  H   UNL     1      12.092  38.910  56.346  0.00  0.00    +0.000 HD
ENDBRANCH   3  16
BRANCH   2  18
ATOM     18  O   UNL     1      12.674  40.849  57.848  0.00  0.00    +0.000 OA
ATOM     19  H   UNL     1      11.936  40.389  57.415  0.00  0.00    +0.000 HD
ENDBRANCH   2  18
BRANCH   9  20
ATOM     20  C   UNL     1      19.426  36.717  57.567  0.00  0.00    +0.000 C 
BRANCH  20  21
ATOM     21  C   UNL     1      19.122  35.835  56.381  0.00  0.00    +0.000 A 
ATOM     22  C   UNL     1      19.250  34.446  56.482  0.00  0.00    +0.000 A 
ATOM     23  C   UNL     1      19.237  33.652  55.341  0.00  0.00    +0.000 A 
ATOM     24  C   UNL     1      19.006  34.230  54.093  0.00  0.00    +0.000 A 
ATOM     25  C   UNL     1      18.751  35.596  53.998  0.00  0.00    +0.000 A 
ATOM     26  C   UNL     1      18.808  36.401  55.131  0.00  0.00    +0.000 A 
ENDBRANCH  20  21
ENDBRANCH   9  20
BRANCH   1  27
ATOM     27  C   UNL     1      15.306  41.875  58.680  0.00  0.00    +0.000 C 
BRANCH  27  29
ATOM     28  C   UNL     1      13.941  43.172  60.352  0.00  0.00    +0.000 C 
ATOM     29  C   UNL     1      15.034  42.134  60.164  0.00  0.00    +0.000 C 
ENDBRANCH  27  29
ENDBRANCH   1  27
TORSDOF 8
ENDMDL
MODEL 3
REMARK VINA RESULT:    -7.389      5.495      9.705
REMARK INTER + INTRA:         -11.395
REMARK INTER:                 -10.266
REMARK INTRA:                  -1.129
REMARK UNBOUND:                -1.198
REMARK  Name = 
REMARK  10 active torsions:
REMARK  status: ('A' for Active; 'I' for Inactive)
REMARK    1  A    between atoms: C_1  and  C_2
REMARK    2  A    between atoms: C_2  and  C_3
REMARK    3  A    between atoms: C_3  and  C_4
REMARK    4  A    between atoms: C_5  and  O_26
REMARK    5  A    between atoms: C_6  and  O_25
REMARK    6  A    between atoms: C_7  and  C_22
REMARK    7  A    between atoms: C_11  and  C_21
REMARK    8  A    between atoms: C_12  and  C_14
REMARK    9  A    between atoms: C_14  and  C_15
REMARK   10  A    between atoms: C_22  and  O_24
REMARK                            x       y       z     vdW  Elec       q    Type
REMARK                         _______ _______ _______ _____ _____    ______ ____
ROOT
ATOM      1  C   UNL     1      15.347  44.248  60.876  0.00  0.00    +0.000 A 
ATOM      2  C   UNL     1      14.202  45.048  60.962  0.00  0.00    +0.000 A 
ATOM      3  C   UNL     1      13.046  44.738  60.247  0.00  0.00    +0.000 A 
ATOM      4  C   UNL     1      12.964  43.615  59.415  0.00  0.00    +0.000 A 
ATOM      5  C   UNL     1      14.145  42.797  59.277  0.00  0.00    +0.000 A 
ATOM      6  C   UNL     1      15.328  43.132  59.987  0.00  0.00    +0.000 A 
ATOM      7  C   UNL     1      16.499  42.352  59.753  0.00  0.00    +0.000 A 
ATOM      8  C   UNL     1      16.572  41.350  58.773  0.00  0.00    +0.000 A 
ATOM      9  C   UNL     1      15.433  41.028  58.058  0.00  0.00    +0.000 A 
ATOM     10  C   UNL     1      14.225  41.679  58.403  0.00  0.00    +0.000 A 
ATOM     11  C   UNL     1      17.896  40.689  58.496  0.00  0.00    +0.000 C 
ENDROOT
BRANCH   4  12
ATOM     12  C   UNL     1      11.693  43.347  58.621  0.00  0.00    +0.000 C 
ATOM     13  O   UNL     1      11.578  43.466  57.420  0.00  0.00    +0.000 OA
BRANCH  12  14
ATOM     14  O   UNL     1      10.618  42.954  59.350  0.00  0.00    +0.000 OA
ATOM     15  H   UNL     1      10.662  42.012  59.624  0.00  0.00    +0.000 HD
ENDBRANCH  12  14
ENDBRANCH   4  12
BRANCH   3  16
ATOM     16  O   UNL     1      11.992  45.620  60.376  0.00  0.00    +0.000 OA
ATOM     17  H   UNL     1      12.401  46.507  60.245  0.00  0.00    +0.000 HD
ENDBRANCH   3  16
BRANCH   2  18
ATOM     18  O   UNL     1      14.118  46.198  61.706  0.00  0.00    +0.000 OA
ATOM     19  H   UNL     1      14.164  45.985  62.653  0.00  0.00    +0.000 HD
ENDBRANCH   2  18
BRANCH   9  20
ATOM     20  C   UNL     1      15.457  40.072  56.868  0.00  0.00    +0.000 C 
BRANCH  20  21
ATOM     21  C   UNL     1      15.267  38.617  57.219  0.00  0.00    +0.000 A 
ATOM     22  C   UNL     1      16.374  37.769  57.339  0.00  0.00    +0.000 A 
ATOM     23  C   UNL     1      16.201  36.390  57.393  0.00  0.00    +0.000 A 
ATOM     24  C   UNL     1      14.916  35.849  57.418  0.00  0.00    +0.000 A 
ATOM     25  C   UNL     1      13.809  36.693  57.427  0.00  0.00    +0.000 A 
ATOM     26  C   UNL     1      13.974  38.070  57.327  0.00  0.00    +0.000 A 
ENDBRANCH  20  21
ENDBRANCH   9  20
BRANCH   1  27
ATOM     27  C   UNL     1      16.598  44.611  61.654  0.00  0.00    +0.000 C 
BRANCH  27  29
ATOM     28  C   UNL     1      17.688  46.880  61.583  0.00  0.00    +0.000 C 
ATOM     29  C   UNL     1      17.504  45.556  60.860  0.00  0.00    +0.000 C 
ENDBRANCH  27  29
ENDBRANCH   1  27
TORSDOF 8
ENDMDL
MODEL 4
REMARK VINA RESULT:    -7.273     12.013     14.563
REMARK INTER + INTRA:         -11.235
REMARK INTER:                  -9.897
REMARK INTRA:                  -1.338
REMARK UNBOUND:                -1.198
REMARK  Name = 
REMARK  10 active torsions:
REMARK  status: ('A' for Active; 'I' for Inactive)
REMARK    1  A    between atoms: C_1  and  C_2
REMARK    2  A    between atoms: C_2  and  C_3
REMARK    3  A    between atoms: C_3  and  C_4
REMARK    4  A    between atoms: C_5  and  O_26
REMARK    5  A    between atoms: C_6  and  O_25
REMARK    6  A    between atoms: C_7  and  C_22
REMARK    7  A    between atoms: C_11  and  C_21
REMARK    8  A    between atoms: C_12  and  C_14
REMARK    9  A    between atoms: C_14  and  C_15
REMARK   10  A    between atoms: C_22  and  O_24
REMARK                            x       y       z     vdW  Elec       q    Type
REMARK                         _______ _______ _______ _____ _____    ______ ____
ROOT
ATOM      1  C   UNL     1       6.325  44.520  56.954  0.00  0.00    +0.000 A 
ATOM      2  C   UNL     1       7.688  44.819  57.051  0.00  0.00    +0.000 A 
ATOM      3  C   UNL     1       8.414  44.532  58.206  0.00  0.00    +0.000 A 
ATOM      4  C   UNL     1       7.824  43.928  59.323  0.00  0.00    +0.000 A 
ATOM      5  C   UNL     1       6.410  43.647  59.264  0.00  0.00    +0.000 A 
ATOM      6  C   UNL     1       5.671  43.966  58.094  0.00  0.00    +0.000 A 
ATOM      7  C   UNL     1       4.260  43.757  58.110  0.00  0.00    +0.000 A 
ATOM      8  C   UNL     1       3.553  43.366  59.257  0.00  0.00    +0.000 A 
ATOM      9  C   UNL     1       4.258  43.074  60.410  0.00  0.00    +0.000 A 
ATOM     10  C   UNL     1       5.671  43.113  60.355  0.00  0.00    +0.000 A 
ATOM     11  C   UNL     1       2.049  43.323  59.214  0.00  0.00    +0.000 C 
ENDROOT
BRANCH   4  12
ATOM     12  C   UNL     1       8.650  43.676  60.578  0.00  0.00    +0.000 C 
ATOM     13  O   UNL     1       8.535  44.277  61.624  0.00  0.00    +0.000 OA
BRANCH  12  14
ATOM     14  O   UNL     1       9.589  42.702  60.476  0.00  0.00    +0.000 OA
ATOM     15  H   UNL     1       9.291  41.936  59.938  0.00  0.00    +0.000 HD
ENDBRANCH  12  14
ENDBRANCH   4  12
BRANCH   3  16
ATOM     16  O   UNL     1       9.742  44.908  58.205  0.00  0.00    +0.000 OA
ATOM     17  H   UNL     1       9.971  44.986  57.249  0.00  0.00    +0.000 HD
ENDBRANCH   3  16
BRANCH   2  18
ATOM     18  O   UNL     1       8.415  45.437  56.063  0.00  0.00    +0.000 OA
ATOM     19  H   UNL     1       8.071  46.332  55.910  0.00  0.00    +0.000 HD
ENDBRANCH   2  18
BRANCH   9  20
ATOM     20  C   UNL     1       3.568  42.801  61.745  0.00  0.00    +0.000 C 
BRANCH  20  21
ATOM     21  C   UNL     1       3.482  41.344  62.129  0.00  0.00    +0.000 A 
ATOM     22  C   UNL     1       2.402  40.563  61.702  0.00  0.00    +0.000 A 
ATOM     23  C   UNL     1       2.173  39.312  62.263  0.00  0.00    +0.000 A 
ATOM     24  C   UNL     1       3.072  38.790  63.193  0.00  0.00    +0.000 A 
ATOM     25  C   UNL     1       4.217  39.507  63.528  0.00  0.00    +0.000 A 
ATOM     26  C   UNL     1       4.428  40.778  63.004  0.00  0.00    +0.000 A 
ENDBRANCH  20  21
ENDBRANCH   9  20
BRANCH   1  27
ATOM     27  C   UNL     1       5.553  44.852  55.690  0.00  0.00    +0.000 C 
BRANCH  27  29
ATOM     28  C   UNL     1       3.676  46.526  55.810  0.00  0.00    +0.000 C 
ATOM     29  C   UNL     1       5.173  46.334  55.633  0.00  0.00    +0.000 C 
ENDBRANCH  27  29
ENDBRANCH   1  27
TORSDOF 8
ENDMDL
MODEL 5
REMARK VINA RESULT:    -7.255      4.654      9.102
REMARK INTER + INTRA:         -11.210
REMARK INTER:                  -9.874
REMARK INTRA:                  -1.336
REMARK UNBOUND:                -1.198
REMARK  Name = 
REMARK  10 active torsions:
REMARK  status: ('A' for Active; 'I' for Inactive)
REMARK    1  A    between atoms: C_1  and  C_2
REMARK    2  A    between atoms: C_2  and  C_3
REMARK    3  A    between atoms: C_3  and  C_4
REMARK    4  A    between atoms: C_5  and  O_26
REMARK    5  A    between atoms: C_6  and  O_25
REMARK    6  A    between atoms: C_7  and  C_22
REMARK    7  A    between atoms: C_11  and  C_21
REMARK    8  A    between atoms: C_12  and  C_14
REMARK    9  A    between atoms: C_14  and  C_15
REMARK   10  A    between atoms: C_22  and  O_24
REMARK                            x       y       z     vdW  Elec       q    Type
REMARK                         _______ _______ _______ _____ _____    ______ ____
ROOT
ATOM      1  C   UNL     1      12.473  43.784  60.059  0.00  0.00    +0.000 A 
ATOM      2  C   UNL     1      12.006  43.614  61.367  0.00  0.00    +0.000 A 
ATOM      3  C   UNL     1      12.653  42.764  62.264  0.00  0.00    +0.000 A 
ATOM      4  C   UNL     1      13.800  42.044  61.910  0.00  0.00    +0.000 A 
ATOM      5  C   UNL     1      14.279  42.171  60.554  0.00  0.00    +0.000 A 
ATOM      6  C   UNL     1      13.601  43.017  59.639  0.00  0.00    +0.000 A 
ATOM      7  C   UNL     1      14.050  43.044  58.285  0.00  0.00    +0.000 A 
ATOM      8  C   UNL     1      15.048  42.191  57.789  0.00  0.00    +0.000 A 
ATOM      9  C   UNL     1      15.702  41.345  58.666  0.00  0.00    +0.000 A 
ATOM     10  C   UNL     1      15.381  41.434  60.041  0.00  0.00    +0.000 A 
ATOM     11  C   UNL     1      15.345  42.187  56.313  0.00  0.00    +0.000 C 
ENDROOT
BRANCH   4  12
ATOM     12  C   UNL     1      14.443  41.094  62.913  0.00  0.00    +0.000 C 
ATOM     13  O   UNL     1      15.500  41.281  63.476  0.00  0.00    +0.000 OA
BRANCH  12  14
ATOM     14  O   UNL     1      13.754  39.952  63.163  0.00  0.00    +0.000 OA
ATOM     15  H   UNL     1      12.804  40.111  63.356  0.00  0.00    +0.000 HD
ENDBRANCH  12  14
ENDBRANCH   4  12
BRANCH   3  16
ATOM     16  O   UNL     1      12.079  42.641  63.513  0.00  0.00    +0.000 OA
ATOM     17  H   UNL     1      12.722  42.095  64.023  0.00  0.00    +0.000 HD
ENDBRANCH   3  16
BRANCH   2  18
ATOM     18  O   UNL     1      10.881  44.219  61.870  0.00  0.00    +0.000 OA
ATOM     19  H   UNL     1      10.227  44.343  61.162  0.00  0.00    +0.000 HD
ENDBRANCH   2  18
BRANCH   9  20
ATOM     20  C   UNL     1      16.681  40.273  58.193  0.00  0.00    +0.000 C 
BRANCH  20  21
ATOM     21  C   UNL     1      16.066  38.917  57.945  0.00  0.00    +0.000 A 
ATOM     22  C   UNL     1      16.881  37.798  57.744  0.00  0.00    +0.000 A 
ATOM     23  C   UNL     1      16.342  36.613  57.254  0.00  0.00    +0.000 A 
ATOM     24  C   UNL     1      14.967  36.508  57.045  0.00  0.00    +0.000 A 
ATOM     25  C   UNL     1      14.133  37.576  57.363  0.00  0.00    +0.000 A 
ATOM     26  C   UNL     1      14.672  38.778  57.811  0.00  0.00    +0.000 A 
ENDBRANCH  20  21
ENDBRANCH   9  20
BRANCH   1  27
ATOM     27  C   UNL     1      11.747  44.706  59.098  0.00  0.00    +0.000 C 
BRANCH  27  29
ATOM     28  C   UNL     1       9.272  44.485  58.690  0.00  0.00    +0.000 C 
ATOM     29  C   UNL     1      10.652  43.966  58.324  0.00  0.00    +0.000 C 
ENDBRANCH  27  29
ENDBRANCH   1  27
TORSDOF 8
ENDMDL
MODEL 6
REMARK VINA RESULT:    -7.011      3.104      5.316
REMARK INTER + INTRA:         -10.874
REMARK INTER:                 -10.094
REMARK INTRA:                  -0.780
REMARK UNBOUND:                -1.198
REMARK  Name = 
REMARK  10 active torsions:
REMARK  status: ('A' for Active; 'I' for Inactive)
REMARK    1  A    between atoms: C_1  and  C_2
REMARK    2  A    between atoms: C_2  and  C_3
REMARK    3  A    between atoms: C_3  and  C_4
REMARK    4  A    between atoms: C_5  and  O_26
REMARK    5  A    between atoms: C_6  and  O_25
REMARK    6  A    between atoms: C_7  and  C_22
REMARK    7  A    between atoms: C_11  and  C_21
REMARK    8  A    between atoms: C_12  and  C_14
REMARK    9  A    between atoms: C_14  and  C_15
REMARK   10  A    between atoms: C_22  and  O_24
REMARK                            x       y       z     vdW  Elec       q    Type
REMARK                         _______ _______ _______ _____ _____    ______ ____
ROOT
ATOM      1  C   UNL     1      17.267  37.538  57.628  0.00  0.00    +0.000 A 
ATOM      2  C   UNL     1      16.564  36.379  57.283  0.00  0.00    +0.000 A 
ATOM      3  C   UNL     1      15.173  36.377  57.179  0.00  0.00    +0.000 A 
ATOM      4  C   UNL     1      14.409  37.528  57.408  0.00  0.00    +0.000 A 
ATOM      5  C   UNL     1      15.107  38.727  57.805  0.00  0.00    +0.000 A 
ATOM      6  C   UNL     1      16.521  38.715  57.934  0.00  0.00    +0.000 A 
ATOM      7  C   UNL     1      17.164  39.894  58.417  0.00  0.00    +0.000 A 
ATOM      8  C   UNL     1      16.461  41.017  58.881  0.00  0.00    +0.000 A 
ATOM      9  C   UNL     1      15.082  41.033  58.782  0.00  0.00    +0.000 A 
ATOM     10  C   UNL     1      14.448  39.939  58.147  0.00  0.00    +0.000 A 
ATOM     11  C   UNL     1      17.225  42.150  59.515  0.00  0.00    +0.000 C 
ENDROOT
BRANCH   4  12
ATOM     12  C   UNL     1      12.890  37.461  57.326  0.00  0.00    +0.000 C 
ATOM     13  O   UNL     1      12.163  38.387  57.034  0.00  0.00    +0.000 OA
BRANCH  12  14
ATOM     14  O   UNL     1      12.339  36.257  57.620  0.00  0.00    +0.000 OA
ATOM     15  H   UNL     1      12.579  35.932  58.515  0.00  0.00    +0.000 HD
ENDBRANCH  12  14
ENDBRANCH   4  12
BRANCH   3  16
ATOM     16  O   UNL     1      14.584  35.167  56.874  0.00  0.00    +0.000 OA
ATOM     17  H   UNL     1      14.688  35.086  55.897  0.00  0.00    +0.000 HD
ENDBRANCH   3  16
BRANCH   2  18
ATOM     18  O   UNL     1      17.151  35.159  57.054  0.00  0.00    +0.000 OA
ATOM     19  H   UNL     1      17.242  34.673  57.891  0.00  0.00    +0.000 HD
ENDBRANCH   2  18
BRANCH   9  20
ATOM     20  C   UNL     1      14.229  42.135  59.406  0.00  0.00    +0.000 C 
BRANCH  20  21
ATOM     21  C   UNL     1      14.258  42.183  60.914  0.00  0.00    +0.000 A 
ATOM     22  C   UNL     1      14.374  43.408  61.580  0.00  0.00    +0.000 A 
ATOM     23  C   UNL     1      14.670  43.446  62.937  0.00  0.00    +0.000 A 
ATOM     24  C   UNL     1      14.765  42.259  63.663  0.00  0.00    +0.000 A 
ATOM     25  C   UNL     1      14.525  41.040  63.034  0.00  0.00    +0.000 A 
ATOM     26  C   UNL     1      14.273  40.994  61.667  0.00  0.00    +0.000 A 
ENDBRANCH  20  21
ENDBRANCH   9  20
BRANCH   1  27
ATOM     27  C   UNL     1      18.779  37.513  57.745  0.00  0.00    +0.000 C 
BRANCH  27  29
ATOM     28  C   UNL     1      20.002  35.607  58.847  0.00  0.00    +0.000 C 
ATOM     29  C   UNL     1      19.233  36.899  59.072  0.00  0.00    +0.000 C 
ENDBRANCH  27  29
ENDBRANCH   1  27
TORSDOF 8
ENDMDL
MODEL 7
REMARK VINA RESULT:    -6.997      5.633      8.996
REMARK INTER + INTRA:         -10.854
REMARK INTER:                  -9.704
REMARK INTRA:                  -1.150
REMARK UNBOUND:                -1.198
REMARK  Name = 
REMARK  10 active torsions:
REMARK  status: ('A' for Active; 'I' for Inactive)
REMARK    1  A    between atoms: C_1  and  C_2
REMARK    2  A    between atoms: C_2  and  C_3
REMARK    3  A    between atoms: C_3  and  C_4
REMARK    4  A    between atoms: C_5  and  O_26
REMARK    5  A    between atoms: C_6  and  O_25
REMARK    6  A    between atoms: C_7  and  C_22
REMARK    7  A    between atoms: C_11  and  C_21
REMARK    8  A    between atoms: C_12  and  C_14
REMARK    9  A    between atoms: C_14  and  C_15
REMARK   10  A    between atoms: C_22  and  O_24
REMARK                            x       y       z     vdW  Elec       q    Type
REMARK                         _______ _______ _______ _____ _____    ______ ____
ROOT
ATOM      1  C   UNL     1      13.239  43.406  58.486  0.00  0.00    +0.000 A 
ATOM      2  C   UNL     1      13.921  43.005  57.333  0.00  0.00    +0.000 A 
ATOM      3  C   UNL     1      15.029  42.161  57.401  0.00  0.00    +0.000 A 
ATOM      4  C   UNL     1      15.513  41.667  58.619  0.00  0.00    +0.000 A 
ATOM      5  C   UNL     1      14.851  42.098  59.827  0.00  0.00    +0.000 A 
ATOM      6  C   UNL     1      13.740  42.979  59.752  0.00  0.00    +0.000 A 
ATOM      7  C   UNL     1      13.172  43.454  60.971  0.00  0.00    +0.000 A 
ATOM      8  C   UNL     1      13.729  43.190  62.232  0.00  0.00    +0.000 A 
ATOM      9  C   UNL     1      14.825  42.352  62.318  0.00  0.00    +0.000 A 
ATOM     10  C   UNL     1      15.290  41.740  61.131  0.00  0.00    +0.000 A 
ATOM     11  C   UNL     1      13.147  43.863  63.447  0.00  0.00    +0.000 C 
ENDROOT
BRANCH   4  12
ATOM     12  C   UNL     1      16.754  40.784  58.644  0.00  0.00    +0.000 C 
ATOM     13  O   UNL     1      17.858  41.139  58.997  0.00  0.00    +0.000 OA
BRANCH  12  14
ATOM     14  O   UNL     1      16.575  39.508  58.219  0.00  0.00    +0.000 OA
ATOM     15  H   UNL     1      15.640  39.213  58.273  0.00  0.00    +0.000 HD
ENDBRANCH  12  14
ENDBRANCH   4  12
BRANCH   3  16
ATOM     16  O   UNL     1      15.649  41.865  56.204  0.00  0.00    +0.000 OA
ATOM     17  H   UNL     1      14.911  41.832  55.551  0.00  0.00    +0.000 HD
ENDBRANCH   3  16
BRANCH   2  18
ATOM     18  O   UNL     1      13.601  43.417  56.063  0.00  0.00    +0.000 OA
ATOM     19  H   UNL     1      14.407  43.497  55.527  0.00  0.00    +0.000 HD
ENDBRANCH   2  18
BRANCH   9  20
ATOM     20  C   UNL     1      15.593  42.140  63.621  0.00  0.00    +0.000 C 
BRANCH  20  21
ATOM     21  C   UNL     1      15.171  40.928  64.416  0.00  0.00    +0.000 A 
ATOM     22  C   UNL     1      15.966  40.463  65.470  0.00  0.00    +0.000 A 
ATOM     23  C   UNL     1      15.733  39.210  66.027  0.00  0.00    +0.000 A 
ATOM     24  C   UNL     1      14.648  38.447  65.597  0.00  0.00    +0.000 A 
ATOM     25  C   UNL     1      13.778  38.958  64.637  0.00  0.00    +0.000 A 
ATOM     26  C   UNL     1      14.031  40.191  64.045  0.00  0.00    +0.000 A 
ENDBRANCH  20  21
ENDBRANCH   9  20
BRANCH   1  27
ATOM     27  C   UNL     1      12.042  44.333  58.387  0.00  0.00    +0.000 C 
BRANCH  27  29
ATOM     28  C   UNL     1       9.546  44.440  58.070  0.00  0.00    +0.000 C 
ATOM     29  C   UNL     1      10.722  43.563  58.470  0.00  0.00    +0.000 C 
ENDBRANCH  27  29
ENDBRANCH   1  27
TORSDOF 8
ENDMDL
MODEL 8
REMARK VINA RESULT:    -6.865     13.020     15.670
REMARK INTER + INTRA:         -10.672
REMARK INTER:                  -9.588
REMARK INTRA:                  -1.084
REMARK UNBOUND:                -1.198
REMARK  Name = 
REMARK  10 active torsions:
REMARK  status: ('A' for Active; 'I' for Inactive)
REMARK    1  A    between atoms: C_1  and  C_2
REMARK    2  A    between atoms: C_2  and  C_3
REMARK    3  A    between atoms: C_3  and  C_4
REMARK    4  A    between atoms: C_5  and  O_26
REMARK    5  A    between atoms: C_6  and  O_25
REMARK    6  A    between atoms: C_7  and  C_22
REMARK    7  A    between atoms: C_11  and  C_21
REMARK    8  A    between atoms: C_12  and  C_14
REMARK    9  A    between atoms: C_14  and  C_15
REMARK   10  A    between atoms: C_22  and  O_24
REMARK                            x       y       z     vdW  Elec       q    Type
REMARK                         _______ _______ _______ _____ _____    ______ ____
ROOT
ATOM      1  C   UNL     1       5.927  43.120  61.236  0.00  0.00    +0.000 A 
ATOM      2  C   UNL     1       4.788  42.698  61.931  0.00  0.00    +0.000 A 
ATOM      3  C   UNL     1       3.563  42.534  61.286  0.00  0.00    +0.000 A 
ATOM      4  C   UNL     1       3.407  42.774  59.916  0.00  0.00    +0.000 A 
ATOM      5  C   UNL     1       4.556  43.249  59.184  0.00  0.00    +0.000 A 
ATOM      6  C   UNL     1       5.794  43.439  59.852  0.00  0.00    +0.000 A 
ATOM      7  C   UNL     1       6.881  43.997  59.114  0.00  0.00    +0.000 A 
ATOM      8  C   UNL     1       6.752  44.474  57.800  0.00  0.00    +0.000 A 
ATOM      9  C   UNL     1       5.545  44.315  57.145  0.00  0.00    +0.000 A 
ATOM     10  C   UNL     1       4.515  43.610  57.809  0.00  0.00    +0.000 A 
ATOM     11  C   UNL     1       7.915  45.185  57.161  0.00  0.00    +0.000 C 
ENDROOT
BRANCH   4  12
ATOM     12  C   UNL     1       2.037  42.623  59.268  0.00  0.00    +0.000 C 
ATOM     13  O   UNL     1       1.076  43.328  59.490  0.00  0.00    +0.000 OA
BRANCH  12  14
ATOM     14  O   UNL     1       1.915  41.601  58.385  0.00  0.00    +0.000 OA
ATOM     15  H   UNL     1       0.981  41.395  58.160  0.00  0.00    +0.000 HD
ENDBRANCH  12  14
ENDBRANCH   4  12
BRANCH   3  16
ATOM     16  O   UNL     1       2.499  42.155  62.080  0.00  0.00    +0.000 OA
ATOM     17  H   UNL     1       2.893  42.048  62.977  0.00  0.00    +0.000 HD
ENDBRANCH   3  16
BRANCH   2  18
ATOM     18  O   UNL     1       4.757  42.447  63.281  0.00  0.00    +0.000 OA
ATOM     19  H   UNL     1       3.868  42.155  63.543  0.00  0.00    +0.000 HD
ENDBRANCH   2  18
BRANCH   9  20
ATOM     20  C   UNL     1       5.265  44.945  55.782  0.00  0.00    +0.000 C 
BRANCH  20  21
ATOM     21  C   UNL     1       4.219  46.032  55.788  0.00  0.00    +0.000 A 
ATOM     22  C   UNL     1       4.582  47.364  55.558  0.00  0.00    +0.000 A 
ATOM     23  C   UNL     1       3.688  48.394  55.825  0.00  0.00    +0.000 A 
ATOM     24  C   UNL     1       2.390  48.099  56.240  0.00  0.00    +0.000 A 
ATOM     25  C   UNL     1       1.981  46.772  56.349  0.00  0.00    +0.000 A 
ATOM     26  C   UNL     1       2.884  45.739  56.127  0.00  0.00    +0.000 A 
ENDBRANCH  20  21
ENDBRANCH   9  20
BRANCH   1  27
ATOM     27  C   UNL     1       7.247  43.302  61.961  0.00  0.00    +0.000 C 
BRANCH  27  29
ATOM     28  C   UNL     1       8.421  41.508  63.283  0.00  0.00    +0.000 C 
ATOM     29  C   UNL     1       8.108  42.038  61.893  0.00  0.00    +0.000 C 
ENDBRANCH  27  29
ENDBRANCH   1  27
TORSDOF 8
ENDMDL
MODEL 9
REMARK VINA RESULT:    -6.691     12.080     14.513
REMARK INTER + INTRA:         -10.431
REMARK INTER:                  -8.859
REMARK INTRA:                  -1.572
REMARK UNBOUND:                -1.198
REMARK  Name = 
REMARK  10 active torsions:
REMARK  status: ('A' for Active; 'I' for Inactive)
REMARK    1  A    between atoms: C_1  and  C_2
REMARK    2  A    between atoms: C_2  and  C_3
REMARK    3  A    between atoms: C_3  and  C_4
REMARK    4  A    between atoms: C_5  and  O_26
REMARK    5  A    between atoms: C_6  and  O_25
REMARK    6  A    between atoms: C_7  and  C_22
REMARK    7  A    between atoms: C_11  and  C_21
REMARK    8  A    between atoms: C_12  and  C_14
REMARK    9  A    between atoms: C_14  and  C_15
REMARK   10  A    between atoms: C_22  and  O_24
REMARK                            x       y       z     vdW  Elec       q    Type
REMARK                         _______ _______ _______ _____ _____    ______ ____
ROOT
ATOM      1  C   UNL     1       6.534  44.517  56.914  0.00  0.00    +0.000 A 
ATOM      2  C   UNL     1       7.879  44.844  57.120  0.00  0.00    +0.000 A 
ATOM      3  C   UNL     1       8.528  44.528  58.313  0.00  0.00    +0.000 A 
ATOM      4  C   UNL     1       7.877  43.865  59.361  0.00  0.00    +0.000 A 
ATOM      5  C   UNL     1       6.478  43.553  59.189  0.00  0.00    +0.000 A 
ATOM      6  C   UNL     1       5.817  43.902  57.982  0.00  0.00    +0.000 A 
ATOM      7  C   UNL     1       4.414  43.659  57.888  0.00  0.00    +0.000 A 
ATOM      8  C   UNL     1       3.638  43.206  58.966  0.00  0.00    +0.000 A 
ATOM      9  C   UNL     1       4.267  42.884  60.155  0.00  0.00    +0.000 A 
ATOM     10  C   UNL     1       5.679  42.959  60.203  0.00  0.00    +0.000 A 
ATOM     11  C   UNL     1       2.142  43.128  58.813  0.00  0.00    +0.000 C 
ENDROOT
BRANCH   4  12
ATOM     12  C   UNL     1       8.618  43.584  60.661  0.00  0.00    +0.000 C 
ATOM     13  O   UNL     1       8.957  42.487  61.050  0.00  0.00    +0.000 OA
BRANCH  12  14
ATOM     14  O   UNL     1       8.896  44.670  61.425  0.00  0.00    +0.000 OA
ATOM     15  H   UNL     1       9.316  44.440  62.282  0.00  0.00    +0.000 HD
ENDBRANCH  12  14
ENDBRANCH   4  12
BRANCH   3  16
ATOM     16  O   UNL     1       9.842  44.936  58.422  0.00  0.00    +0.000 OA
ATOM     17  H   UNL     1      10.356  44.095  58.443  0.00  0.00    +0.000 HD
ENDBRANCH   3  16
BRANCH   2  18
ATOM     18  O   UNL     1       8.658  45.518  56.212  0.00  0.00    +0.000 OA
ATOM     19  H   UNL     1       8.882  46.398  56.557  0.00  0.00    +0.000 HD
ENDBRANCH   2  18
BRANCH   9  20
ATOM     20  C   UNL     1       3.491  42.541  61.425  0.00  0.00    +0.000 C 
BRANCH  20  21
ATOM     21  C   UNL     1       3.523  43.605  62.495  0.00  0.00    +0.000 A 
ATOM     22  C   UNL     1       3.276  44.943  62.169  0.00  0.00    +0.000 A 
ATOM     23  C   UNL     1       3.564  45.953  63.079  0.00  0.00    +0.000 A 
ATOM     24  C   UNL     1       4.019  45.632  64.357  0.00  0.00    +0.000 A 
ATOM     25  C   UNL     1       4.146  44.296  64.732  0.00  0.00    +0.000 A 
ATOM     26  C   UNL     1       3.902  43.283  63.812  0.00  0.00    +0.000 A 
ENDBRANCH  20  21
ENDBRANCH   9  20
BRANCH   1  27
ATOM     27  C   UNL     1       5.846  44.881  55.612  0.00  0.00    +0.000 C 
BRANCH  27  29
ATOM     28  C   UNL     1       3.950  46.533  55.743  0.00  0.00    +0.000 C 
ATOM     29  C   UNL     1       5.451  46.359  55.575  0.00  0.00    +0.000 C 
ENDBRANCH  27  29
ENDBRANCH   1  27
TORSDOF 8
ENDMDL
