MODEL 1
REMARK VINA RESULT:    -6.284      0.000      0.000
REMARK INTER + INTRA:          -7.441
REMARK INTER:                  -7.386
REMARK INTRA:                  -0.055
REMARK UNBOUND:                -0.055
REMARK  Name = 
REMARK  5 active torsions:
REMARK  status: ('A' for Active; 'I' for Inactive)
REMARK    1  A    between atoms: O_1  and  C_2
REMARK    2  A    between atoms: C_2  and  C_4
REMARK    3  A    between atoms: C_6  and  O_7
REMARK    4  A    between atoms: C_8  and  O_9
REMARK    5  A    between atoms: C_10  and  O_11
REMARK                            x       y       z     vdW  Elec       q    Type
REMARK                         _______ _______ _______ _____ _____    ______ ____
ROOT
ATOM      1  C   UNL     1      16.548  35.762  57.136  0.00  0.00    +0.000 A 
ATOM      2  C   UNL     1      17.550  36.178  56.241  0.00  0.00    +0.000 A 
ATOM      3  C   UNL     1      18.878  36.170  56.655  0.00  0.00    +0.000 A 
ATOM      4  C   UNL     1      19.205  35.749  57.940  0.00  0.00    +0.000 A 
ATOM      5  C   UNL     1      18.213  35.322  58.813  0.00  0.00    +0.000 A 
ATOM      6  C   UNL     1      16.881  35.312  58.420  0.00  0.00    +0.000 A 
ENDROOT
BRANCH   1   7
ATOM      7  C   UNL     1      15.144  35.787  56.660  0.00  0.00    +0.000 C 
ATOM      8  O   UNL     1      14.205  36.018  57.403  0.00  0.00    +0.000 OA
BRANCH   7   9
ATOM      9  O   UNL     1      14.999  35.469  55.358  0.00  0.00    +0.000 OA
ATOM     10  H   UNL     1      15.782  35.076  54.930  0.00  0.00    +0.000 HD
ENDBRANCH   7   9
ENDBRANCH   1   7
BRANCH   3  11
ATOM     11  O   UNL     1      19.898  36.569  55.838  0.00  0.00    +0.000 OA
ATOM     12  H   UNL     1      19.743  36.204  54.948  0.00  0.00    +0.000 HD
ENDBRANCH   3  11
BRANCH   4  13
ATOM     13  O   UNL     1      20.505  35.741  58.360  0.00  0.00    +0.000 OA
ATOM     14  H   UNL     1      20.513  36.332  59.142  0.00  0.00    +0.000 HD
ENDBRANCH   4  13
BRANCH   5  15
ATOM     15  O   UNL     1      18.537  34.903  60.070  0.00  0.00    +0.000 OA
ATOM     16  H   UNL     1      17.686  34.632  60.470  0.00  0.00    +0.000 HD
ENDBRANCH   5  15
TORSDOF 5
ENDMDL
MODEL 2
REMARK VINA RESULT:    -6.253      0.048      2.391
REMARK INTER + INTRA:          -7.405
REMARK INTER:                  -7.351
REMARK INTRA:                  -0.054
REMARK UNBOUND:                -0.055
REMARK  Name = 
REMARK  5 active torsions:
REMARK  status: ('A' for Active; 'I' for Inactive)
REMARK    1  A    between atoms: O_1  and  C_2
REMARK    2  A    between atoms: C_2  and  C_4
REMARK    3  A    between atoms: C_6  and  O_7
REMARK    4  A    between atoms: C_8  and  O_9
REMARK    5  A    between atoms: C_10  and  O_11
REMARK                            x       y       z     vdW  Elec       q    Type
REMARK                         _______ _______ _______ _____ _____    ______ ____
ROOT
ATOM      1  C   UNL     1      16.566  35.790  57.104  0.00  0.00    +0.000 A 
ATOM      2  C   UNL     1      16.863  35.343  58.405  0.00  0.00    +0.000 A 
ATOM      3  C   UNL     1      18.186  35.321  58.831  0.00  0.00    +0.000 A 
ATOM      4  C   UNL     1      19.201  35.740  57.978  0.00  0.00    +0.000 A 
ATOM      5  C   UNL     1      18.900  36.198  56.701  0.00  0.00    +0.000 A 
ATOM      6  C   UNL     1      17.586  36.239  56.255  0.00  0.00    +0.000 A 
ENDROOT
BRANCH   1   7
ATOM      7  C   UNL     1      15.145  35.798  56.684  0.00  0.00    +0.000 C 
ATOM      8  O   UNL     1      14.232  36.015  57.464  0.00  0.00    +0.000 OA
BRANCH   7   9
ATOM      9  O   UNL     1      14.953  35.481  55.387  0.00  0.00    +0.000 OA
ATOM     10  H   UNL     1      15.391  34.664  55.084  0.00  0.00    +0.000 HD
ENDBRANCH   7   9
ENDBRANCH   1   7
BRANCH   3  11
ATOM     11  O   UNL     1      18.542  34.891  60.078  0.00  0.00    +0.000 OA
ATOM     12  H   UNL     1      17.911  35.258  60.724  0.00  0.00    +0.000 HD
ENDBRANCH   3  11
BRANCH   4  13
ATOM     13  O   UNL     1      20.506  35.719  58.383  0.00  0.00    +0.000 OA
ATOM     14  H   UNL     1      21.015  35.947  57.578  0.00  0.00    +0.000 HD
ENDBRANCH   4  13
BRANCH   5  15
ATOM     15  O   UNL     1      19.897  36.616  55.869  0.00  0.00    +0.000 OA
ATOM     16  H   UNL     1      19.529  37.401  55.414  0.00  0.00    +0.000 HD
ENDBRANCH   5  15
TORSDOF 5
ENDMDL
MODEL 3
REMARK VINA RESULT:    -5.865      3.715      5.326
REMARK INTER + INTRA:          -6.948
REMARK INTER:                  -6.896
REMARK INTRA:                  -0.052
REMARK UNBOUND:                -0.055
REMARK  Name = 
REMARK  5 active torsions:
REMARK  status: ('A' for Active; 'I' for Inactive)
REMARK    1  A    between atoms: O_1  and  C_2
REMARK    2  A    between atoms: C_2  and  C_4
REMARK    3  A    between atoms: C_6  and  O_7
REMARK    4  A    between atoms: C_8  and  O_9
REMARK    5  A    between atoms: C_10  and  O_11
REMARK                            x       y       z     vdW  Elec       q    Type
REMARK                         _______ _______ _______ _____ _____    ______ ____
ROOT
ATOM      1  C   UNL     1      16.084  39.575  57.933  0.00  0.00    +0.000 A 
ATOM      2  C   UNL     1      16.731  38.343  57.724  0.00  0.00    +0.000 A 
ATOM      3  C   UNL     1      15.967  37.195  57.546  0.00  0.00    +0.000 A 
ATOM      4  C   UNL     1      14.578  37.270  57.570  0.00  0.00    +0.000 A 
ATOM      5  C   UNL     1      13.945  38.492  57.759  0.00  0.00    +0.000 A 
ATOM      6  C   UNL     1      14.685  39.655  57.930  0.00  0.00    +0.000 A 
ENDROOT
BRANCH   1   7
ATOM      7  C   UNL     1      16.931  40.776  58.122  0.00  0.00    +0.000 C 
ATOM      8  O   UNL     1      17.879  40.795  58.889  0.00  0.00    +0.000 OA
BRANCH   7   9
ATOM      9  O   UNL     1      16.519  41.854  57.425  0.00  0.00    +0.000 OA
ATOM     10  H   UNL     1      15.830  41.686  56.756  0.00  0.00    +0.000 HD
ENDBRANCH   7   9
ENDBRANCH   1   7
BRANCH   3  11
ATOM     11  O   UNL     1      16.533  35.968  57.346  0.00  0.00    +0.000 OA
ATOM     12  H   UNL     1      16.522  35.480  58.190  0.00  0.00    +0.000 HD
ENDBRANCH   3  11
BRANCH   4  13
ATOM     13  O   UNL     1      13.816  36.149  57.400  0.00  0.00    +0.000 OA
ATOM     14  H   UNL     1      13.174  36.394  56.702  0.00  0.00    +0.000 HD
ENDBRANCH   4  13
BRANCH   5  15
ATOM     15  O   UNL     1      12.583  38.564  57.775  0.00  0.00    +0.000 OA
ATOM     16  H   UNL     1      12.292  37.957  57.064  0.00  0.00    +0.000 HD
ENDBRANCH   5  15
TORSDOF 5
ENDMDL
MODEL 4
REMARK VINA RESULT:    -5.832      3.704      5.374
REMARK INTER + INTRA:          -6.909
REMARK INTER:                  -6.857
REMARK INTRA:                  -0.053
REMARK UNBOUND:                -0.055
REMARK  Name = 
REMARK  5 active torsions:
REMARK  status: ('A' for Active; 'I' for Inactive)
REMARK    1  A    between atoms: O_1  and  C_2
REMARK    2  A    between atoms: C_2  and  C_4
REMARK    3  A    between atoms: C_6  and  O_7
REMARK    4  A    between atoms: C_8  and  O_9
REMARK    5  A    between atoms: C_10  and  O_11
REMARK                            x       y       z     vdW  Elec       q    Type
REMARK                         _______ _______ _______ _____ _____    ______ ____
ROOT
ATOM      1  C   UNL     1      16.117  39.535  57.914  0.00  0.00    +0.000 A 
ATOM      2  C   UNL     1      14.714  39.635  57.936  0.00  0.00    +0.000 A 
ATOM      3  C   UNL     1      13.947  38.488  57.760  0.00  0.00    +0.000 A 
ATOM      4  C   UNL     1      14.566  37.258  57.569  0.00  0.00    +0.000 A 
ATOM      5  C   UNL     1      15.952  37.163  57.566  0.00  0.00    +0.000 A 
ATOM      6  C   UNL     1      16.740  38.291  57.750  0.00  0.00    +0.000 A 
ENDROOT
BRANCH   1   7
ATOM      7  C   UNL     1      16.901  40.779  58.102  0.00  0.00    +0.000 C 
ATOM      8  O   UNL     1      17.833  40.853  58.886  0.00  0.00    +0.000 OA
BRANCH   7   9
ATOM      9  O   UNL     1      16.450  41.827  57.383  0.00  0.00    +0.000 OA
ATOM     10  H   UNL     1      15.717  42.330  57.784  0.00  0.00    +0.000 HD
ENDBRANCH   7   9
ENDBRANCH   1   7
BRANCH   3  11
ATOM     11  O   UNL     1      12.581  38.518  57.763  0.00  0.00    +0.000 OA
ATOM     12  H   UNL     1      12.289  39.350  57.349  0.00  0.00    +0.000 HD
ENDBRANCH   3  11
BRANCH   4  13
ATOM     13  O   UNL     1      13.825  36.124  57.390  0.00  0.00    +0.000 OA
ATOM     14  H   UNL     1      14.462  35.469  57.036  0.00  0.00    +0.000 HD
ENDBRANCH   4  13
BRANCH   5  15
ATOM     15  O   UNL     1      16.557  35.953  57.386  0.00  0.00    +0.000 OA
ATOM     16  H   UNL     1      16.742  35.907  56.425  0.00  0.00    +0.000 HD
ENDBRANCH   5  15
TORSDOF 5
ENDMDL
MODEL 5
REMARK VINA RESULT:    -5.769      1.733      2.980
REMARK INTER + INTRA:          -6.836
REMARK INTER:                  -6.787
REMARK INTRA:                  -0.049
REMARK UNBOUND:                -0.055
REMARK  Name = 
REMARK  5 active torsions:
REMARK  status: ('A' for Active; 'I' for Inactive)
REMARK    1  A    between atoms: O_1  and  C_2
REMARK    2  A    between atoms: C_2  and  C_4
REMARK    3  A    between atoms: C_6  and  O_7
REMARK    4  A    between atoms: C_8  and  O_9
REMARK    5  A    between atoms: C_10  and  O_11
REMARK                            x       y       z     vdW  Elec       q    Type
REMARK                         _______ _______ _______ _____ _____    ______ ____
ROOT
ATOM      1  C   UNL     1      16.221  36.514  56.700  0.00  0.00    +0.000 A 
ATOM      2  C   UNL     1      17.426  36.737  57.391  0.00  0.00    +0.000 A 
ATOM      3  C   UNL     1      18.632  36.418  56.777  0.00  0.00    +0.000 A 
ATOM      4  C   UNL     1      18.642  35.888  55.492  0.00  0.00    +0.000 A 
ATOM      5  C   UNL     1      17.450  35.687  54.807  0.00  0.00    +0.000 A 
ATOM      6  C   UNL     1      16.233  36.006  55.394  0.00  0.00    +0.000 A 
ENDROOT
BRANCH   1   7
ATOM      7  C   UNL     1      14.955  36.864  57.387  0.00  0.00    +0.000 C 
ATOM      8  O   UNL     1      14.716  37.991  57.786  0.00  0.00    +0.000 OA
BRANCH   7   9
ATOM      9  O   UNL     1      14.130  35.816  57.585  0.00  0.00    +0.000 OA
ATOM     10  H   UNL     1      14.554  35.001  57.914  0.00  0.00    +0.000 HD
ENDBRANCH   7   9
ENDBRANCH   1   7
BRANCH   3  11
ATOM     11  O   UNL     1      19.835  36.603  57.397  0.00  0.00    +0.000 OA
ATOM     12  H   UNL     1      19.734  37.301  58.069  0.00  0.00    +0.000 HD
ENDBRANCH   3  11
BRANCH   4  13
ATOM     13  O   UNL     1      19.820  35.566  54.879  0.00  0.00    +0.000 OA
ATOM     14  H   UNL     1      20.008  36.330  54.294  0.00  0.00    +0.000 HD
ENDBRANCH   4  13
BRANCH   5  15
ATOM     15  O   UNL     1      17.463  35.174  53.543  0.00  0.00    +0.000 OA
ATOM     16  H   UNL     1      17.748  35.919  52.974  0.00  0.00    +0.000 HD
ENDBRANCH   5  15
TORSDOF 5
ENDMDL
MODEL 6
REMARK VINA RESULT:    -5.762      1.707      2.473
REMARK INTER + INTRA:          -6.827
REMARK INTER:                  -6.778
REMARK INTRA:                  -0.049
REMARK UNBOUND:                -0.055
REMARK  Name = 
REMARK  5 active torsions:
REMARK  status: ('A' for Active; 'I' for Inactive)
REMARK    1  A    between atoms: O_1  and  C_2
REMARK    2  A    between atoms: C_2  and  C_4
REMARK    3  A    between atoms: C_6  and  O_7
REMARK    4  A    between atoms: C_8  and  O_9
REMARK    5  A    between atoms: C_10  and  O_11
REMARK                            x       y       z     vdW  Elec       q    Type
REMARK                         _______ _______ _______ _____ _____    ______ ____
ROOT
ATOM      1  C   UNL     1      16.210  36.556  56.772  0.00  0.00    +0.000 A 
ATOM      2  C   UNL     1      16.176  36.038  55.465  0.00  0.00    +0.000 A 
ATOM      3  C   UNL     1      17.370  35.708  54.832  0.00  0.00    +0.000 A 
ATOM      4  C   UNL     1      18.581  35.888  55.492  0.00  0.00    +0.000 A 
ATOM      5  C   UNL     1      18.607  36.383  56.789  0.00  0.00    +0.000 A 
ATOM      6  C   UNL     1      17.429  36.711  57.446  0.00  0.00    +0.000 A 
ENDROOT
BRANCH   1   7
ATOM      7  C   UNL     1      14.918  36.899  57.414  0.00  0.00    +0.000 C 
ATOM      8  O   UNL     1      14.671  38.018  57.832  0.00  0.00    +0.000 OA
BRANCH   7   9
ATOM      9  O   UNL     1      14.078  35.853  57.549  0.00  0.00    +0.000 OA
ATOM     10  H   UNL     1      13.788  35.434  56.717  0.00  0.00    +0.000 HD
ENDBRANCH   7   9
ENDBRANCH   1   7
BRANCH   3  11
ATOM     11  O   UNL     1      17.406  35.208  53.562  0.00  0.00    +0.000 OA
ATOM     12  H   UNL     1      16.735  34.506  53.486  0.00  0.00    +0.000 HD
ENDBRANCH   3  11
BRANCH   4  13
ATOM     13  O   UNL     1      19.762  35.572  54.879  0.00  0.00    +0.000 OA
ATOM     14  H   UNL     1      19.519  35.430  53.941  0.00  0.00    +0.000 HD
ENDBRANCH   4  13
BRANCH   5  15
ATOM     15  O   UNL     1      19.797  36.552  57.436  0.00  0.00    +0.000 OA
ATOM     16  H   UNL     1      19.862  37.516  57.591  0.00  0.00    +0.000 HD
ENDBRANCH   5  15
TORSDOF 5
ENDMDL
MODEL 7
REMARK VINA RESULT:    -5.708      2.039      4.642
REMARK INTER + INTRA:          -6.764
REMARK INTER:                  -6.712
REMARK INTRA:                  -0.052
REMARK UNBOUND:                -0.055
REMARK  Name = 
REMARK  5 active torsions:
REMARK  status: ('A' for Active; 'I' for Inactive)
REMARK    1  A    between atoms: O_1  and  C_2
REMARK    2  A    between atoms: C_2  and  C_4
REMARK    3  A    between atoms: C_6  and  O_7
REMARK    4  A    between atoms: C_8  and  O_9
REMARK    5  A    between atoms: C_10  and  O_11
REMARK                            x       y       z     vdW  Elec       q    Type
REMARK                         _______ _______ _______ _____ _____    ______ ____
ROOT
ATOM      1  C   UNL     1      17.723  37.124  57.624  0.00  0.00    +0.000 A 
ATOM      2  C   UNL     1      17.076  36.157  56.834  0.00  0.00    +0.000 A 
ATOM      3  C   UNL     1      15.788  36.408  56.372  0.00  0.00    +0.000 A 
ATOM      4  C   UNL     1      15.154  37.605  56.687  0.00  0.00    +0.000 A 
ATOM      5  C   UNL     1      15.806  38.563  57.453  0.00  0.00    +0.000 A 
ATOM      6  C   UNL     1      17.095  38.342  57.918  0.00  0.00    +0.000 A 
ENDROOT
BRANCH   1   7
ATOM      7  C   UNL     1      19.094  36.822  58.101  0.00  0.00    +0.000 C 
ATOM      8  O   UNL     1      19.441  37.007  59.255  0.00  0.00    +0.000 OA
BRANCH   7   9
ATOM      9  O   UNL     1      19.929  36.390  57.134  0.00  0.00    +0.000 OA
ATOM     10  H   UNL     1      20.169  37.050  56.457  0.00  0.00    +0.000 HD
ENDBRANCH   7   9
ENDBRANCH   1   7
BRANCH   3  11
ATOM     11  O   UNL     1      15.101  35.508  55.608  0.00  0.00    +0.000 OA
ATOM     12  H   UNL     1      15.729  34.841  55.274  0.00  0.00    +0.000 HD
ENDBRANCH   3  11
BRANCH   4  13
ATOM     13  O   UNL     1      13.887  37.861  56.244  0.00  0.00    +0.000 OA
ATOM     14  H   UNL     1      14.006  38.137  55.311  0.00  0.00    +0.000 HD
ENDBRANCH   4  13
BRANCH   5  15
ATOM     15  O   UNL     1      15.184  39.740  57.754  0.00  0.00    +0.000 OA
ATOM     16  H   UNL     1      14.430  39.791  57.131  0.00  0.00    +0.000 HD
ENDBRANCH   5  15
TORSDOF 5
ENDMDL
MODEL 8
REMARK VINA RESULT:    -5.693      2.723      4.508
REMARK INTER + INTRA:          -6.747
REMARK INTER:                  -6.692
REMARK INTRA:                  -0.055
REMARK UNBOUND:                -0.055
REMARK  Name = 
REMARK  5 active torsions:
REMARK  status: ('A' for Active; 'I' for Inactive)
REMARK    1  A    between atoms: O_1  and  C_2
REMARK    2  A    between atoms: C_2  and  C_4
REMARK    3  A    between atoms: C_6  and  O_7
REMARK    4  A    between atoms: C_8  and  O_9
REMARK    5  A    between atoms: C_10  and  O_11
REMARK                            x       y       z     vdW  Elec       q    Type
REMARK                         _______ _______ _______ _____ _____    ______ ____
ROOT
ATOM      1  C   UNL     1      19.298  35.427  57.248  0.00  0.00    +0.000 A 
ATOM      2  C   UNL     1      19.618  34.057  57.237  0.00  0.00    +0.000 A 
ATOM      3  C   UNL     1      19.511  33.343  56.048  0.00  0.00    +0.000 A 
ATOM      4  C   UNL     1      19.095  33.983  54.885  0.00  0.00    +0.000 A 
ATOM      5  C   UNL     1      18.798  35.340  54.899  0.00  0.00    +0.000 A 
ATOM      6  C   UNL     1      18.907  36.077  56.070  0.00  0.00    +0.000 A 
ENDROOT
BRANCH   1   7
ATOM      7  C   UNL     1      19.422  36.154  58.534  0.00  0.00    +0.000 C 
ATOM      8  O   UNL     1      19.162  35.636  59.607  0.00  0.00    +0.000 OA
BRANCH   7   9
ATOM      9  O   UNL     1      19.781  37.447  58.401  0.00  0.00    +0.000 OA
ATOM     10  H   UNL     1      19.849  37.774  57.485  0.00  0.00    +0.000 HD
ENDBRANCH   7   9
ENDBRANCH   1   7
BRANCH   3  11
ATOM     11  O   UNL     1      19.799  32.010  55.971  0.00  0.00    +0.000 OA
ATOM     12  H   UNL     1      20.518  31.884  55.326  0.00  0.00    +0.000 HD
ENDBRANCH   3  11
BRANCH   4  13
ATOM     13  O   UNL     1      18.981  33.291  53.712  0.00  0.00    +0.000 OA
ATOM     14  H   UNL     1      19.830  32.809  53.630  0.00  0.00    +0.000 HD
ENDBRANCH   4  13
BRANCH   5  15
ATOM     15  O   UNL     1      18.398  35.966  53.755  0.00  0.00    +0.000 OA
ATOM     16  H   UNL     1      18.640  35.349  53.034  0.00  0.00    +0.000 HD
ENDBRANCH   5  15
TORSDOF 5
ENDMDL
MODEL 9
REMARK VINA RESULT:    -5.491      2.290      3.567
REMARK INTER + INTRA:          -6.509
REMARK INTER:                  -6.454
REMARK INTRA:                  -0.055
REMARK UNBOUND:                -0.055
REMARK  Name = 
REMARK  5 active torsions:
REMARK  status: ('A' for Active; 'I' for Inactive)
REMARK    1  A    between atoms: O_1  and  C_2
REMARK    2  A    between atoms: C_2  and  C_4
REMARK    3  A    between atoms: C_6  and  O_7
REMARK    4  A    between atoms: C_8  and  O_9
REMARK    5  A    between atoms: C_10  and  O_11
REMARK                            x       y       z     vdW  Elec       q    Type
REMARK                         _______ _______ _______ _____ _____    ______ ____
ROOT
ATOM      1  C   UNL     1      17.872  35.075  54.815  0.00  0.00    +0.000 A 
ATOM      2  C   UNL     1      16.716  35.824  55.102  0.00  0.00    +0.000 A 
ATOM      3  C   UNL     1      16.724  36.700  56.183  0.00  0.00    +0.000 A 
ATOM      4  C   UNL     1      17.867  36.834  56.964  0.00  0.00    +0.000 A 
ATOM      5  C   UNL     1      19.011  36.105  56.665  0.00  0.00    +0.000 A 
ATOM      6  C   UNL     1      19.032  35.231  55.586  0.00  0.00    +0.000 A 
ENDROOT
BRANCH   1   7
ATOM      7  C   UNL     1      17.826  34.150  53.658  0.00  0.00    +0.000 C 
ATOM      8  O   UNL     1      18.784  33.970  52.925  0.00  0.00    +0.000 OA
BRANCH   7   9
ATOM      9  O   UNL     1      16.619  33.583  53.456  0.00  0.00    +0.000 OA
ATOM     10  H   UNL     1      15.891  34.201  53.257  0.00  0.00    +0.000 HD
ENDBRANCH   7   9
ENDBRANCH   1   7
BRANCH   3  11
ATOM     11  O   UNL     1      15.633  37.450  56.519  0.00  0.00    +0.000 OA
ATOM     12  H   UNL     1      15.904  38.112  57.181  0.00  0.00    +0.000 HD
ENDBRANCH   3  11
BRANCH   4  13
ATOM     13  O   UNL     1      17.886  37.687  58.031  0.00  0.00    +0.000 OA
ATOM     14  H   UNL     1      16.984  38.069  58.054  0.00  0.00    +0.000 HD
ENDBRANCH   4  13
BRANCH   5  15
ATOM     15  O   UNL     1      20.132  36.243  57.429  0.00  0.00    +0.000 OA
ATOM     16  H   UNL     1      19.896  36.915  58.101  0.00  0.00    +0.000 HD
ENDBRANCH   5  15
TORSDOF 5
ENDMDL
