MODEL 1
REMARK VINA RESULT:    -8.642      0.000      0.000
REMARK INTER + INTRA:          -9.652
REMARK INTER:                  -9.652
REMARK INTRA:                   0.000
REMARK UNBOUND:                 0.000
REMARK  Name = 
REMARK  4 active torsions:
REMARK  status: ('A' for Active; 'I' for Inactive)
REMARK    1  A    between atoms: C_7  and  O_11
REMARK    2  A    between atoms: C_8  and  O_10
REMARK    3  A    between atoms: C_15  and  O_20
REMARK    4  A    between atoms: C_16  and  O_19
REMARK                            x       y       z     vdW  Elec       q    Type
REMARK                         _______ _______ _______ _____ _____    ______ ____
ROOT
ATOM      1  C   UNL     1      16.519  35.765  57.185  0.00  0.00    +0.000 A 
ATOM      2  C   UNL     1      16.017  36.971  57.493  0.00  0.00    +0.000 A 
ATOM      3  C   UNL     1      16.887  38.073  57.898  0.00  0.00    +0.000 A 
ATOM      4  C   UNL     1      16.300  39.252  58.190  0.00  0.00    +0.000 A 
ATOM      5  C   UNL     1      14.859  39.440  58.111  0.00  0.00    +0.000 A 
ATOM      6  C   UNL     1      14.280  40.614  58.403  0.00  0.00    +0.000 A 
ATOM      7  C   UNL     1      15.106  41.719  58.807  0.00  0.00    +0.000 A 
ATOM      8  C   UNL     1      16.438  41.566  58.885  0.00  0.00    +0.000 A 
ATOM      9  O   UNL     1      17.056  40.360  58.586  0.00  0.00    +0.000 OA
ATOM     10  O   UNL     1      14.052  38.353  57.715  0.00  0.00    +0.000 OA
ATOM     11  C   UNL     1      14.545  37.124  57.401  0.00  0.00    +0.000 A 
ATOM     12  O   UNL     1      13.804  36.208  57.064  0.00  0.00    +0.000 OA
ATOM     13  C   UNL     1      18.335  37.829  57.962  0.00  0.00    +0.000 A 
ATOM     14  C   UNL     1      18.862  36.631  57.661  0.00  0.00    +0.000 A 
ATOM     15  C   UNL     1      17.975  35.502  57.244  0.00  0.00    +0.000 A 
ATOM     16  O   UNL     1      18.401  34.390  56.956  0.00  0.00    +0.000 OA
ENDROOT
BRANCH   8  17
ATOM     17  O   UNL     1      17.241  42.617  59.271  0.00  0.00    +0.000 OA
ATOM     18  H   UNL     1      18.140  42.240  59.349  0.00  0.00    +0.000 HD
ENDBRANCH   8  17
BRANCH   7  19
ATOM     19  O   UNL     1      14.503  42.921  59.106  0.00  0.00    +0.000 OA
ATOM     20  H   UNL     1      15.186  43.558  59.382  0.00  0.00    +0.000 HD
ENDBRANCH   7  19
BRANCH  14  21
ATOM     21  O   UNL     1      20.230  36.419  57.729  0.00  0.00    +0.000 OA
ATOM     22  H   UNL     1      20.479  36.042  56.862  0.00  0.00    +0.000 HD
ENDBRANCH  14  21
BRANCH  13  23
ATOM     23  O   UNL     1      19.204  38.844  58.342  0.00  0.00    +0.000 OA
ATOM     24  H   UNL     1      20.031  38.457  58.692  0.00  0.00    +0.000 HD
ENDBRANCH  13  23
TORSDOF 4
ENDMDL
MODEL 2
REMARK VINA RESULT:    -8.506      0.742      5.267
REMARK INTER + INTRA:          -9.501
REMARK INTER:                  -9.501
REMARK INTRA:                   0.000
REMARK UNBOUND:                 0.000
REMARK  Name = 
REMARK  4 active torsions:
REMARK  status: ('A' for Active; 'I' for Inactive)
REMARK    1  A    between atoms: C_7  and  O_11
REMARK    2  A    between atoms: C_8  and  O_10
REMARK    3  A    between atoms: C_15  and  O_20
REMARK    4  A    between atoms: C_16  and  O_19
REMARK                            x       y       z     vdW  Elec       q    Type
REMARK                         _______ _______ _______ _____ _____    ______ ____
ROOT
ATOM      1  C   UNL     1      14.249  40.423  58.236  0.00  0.00    +0.000 A 
ATOM      2  C   UNL     1      14.892  39.276  57.966  0.00  0.00    +0.000 A 
ATOM      3  C   UNL     1      16.342  39.168  58.110  0.00  0.00    +0.000 A 
ATOM      4  C   UNL     1      16.908  37.979  57.818  0.00  0.00    +0.000 A 
ATOM      5  C   UNL     1      16.124  36.836  57.374  0.00  0.00    +0.000 A 
ATOM      6  C   UNL     1      16.691  35.656  57.084  0.00  0.00    +0.000 A 
ATOM      7  C   UNL     1      18.116  35.516  57.213  0.00  0.00    +0.000 A 
ATOM      8  C   UNL     1      18.858  36.559  57.622  0.00  0.00    +0.000 A 
ATOM      9  O   UNL     1      18.290  37.787  57.928  0.00  0.00    +0.000 OA
ATOM     10  O   UNL     1      14.726  36.978  57.248  0.00  0.00    +0.000 OA
ATOM     11  C   UNL     1      14.059  38.135  57.517  0.00  0.00    +0.000 A 
ATOM     12  O   UNL     1      12.843  38.211  57.390  0.00  0.00    +0.000 OA
ATOM     13  C   UNL     1      17.086  40.353  58.561  0.00  0.00    +0.000 A 
ATOM     14  C   UNL     1      16.467  41.512  58.835  0.00  0.00    +0.000 A 
ATOM     15  C   UNL     1      14.983  41.626  58.691  0.00  0.00    +0.000 A 
ATOM     16  O   UNL     1      14.366  42.657  58.930  0.00  0.00    +0.000 OA
ENDROOT
BRANCH   8  17
ATOM     17  O   UNL     1      20.224  36.437  57.750  0.00  0.00    +0.000 OA
ATOM     18  H   UNL     1      20.416  36.654  58.684  0.00  0.00    +0.000 HD
ENDBRANCH   8  17
BRANCH   7  19
ATOM     19  O   UNL     1      18.691  34.301  56.912  0.00  0.00    +0.000 OA
ATOM     20  H   UNL     1      19.586  34.271  57.292  0.00  0.00    +0.000 HD
ENDBRANCH   7  19
BRANCH  14  21
ATOM     21  O   UNL     1      17.186  42.620  59.257  0.00  0.00    +0.000 OA
ATOM     22  H   UNL     1      17.850  42.782  58.558  0.00  0.00    +0.000 HD
ENDBRANCH  14  21
BRANCH  13  23
ATOM     23  O   UNL     1      18.466  40.302  58.713  0.00  0.00    +0.000 OA
ATOM     24  H   UNL     1      18.888  40.955  58.120  0.00  0.00    +0.000 HD
ENDBRANCH  13  23
TORSDOF 4
ENDMDL
MODEL 3
REMARK VINA RESULT:    -8.098      2.495      4.697
REMARK INTER + INTRA:          -9.045
REMARK INTER:                  -9.045
REMARK INTRA:                   0.000
REMARK UNBOUND:                 0.000
REMARK  Name = 
REMARK  4 active torsions:
REMARK  status: ('A' for Active; 'I' for Inactive)
REMARK    1  A    between atoms: C_7  and  O_11
REMARK    2  A    between atoms: C_8  and  O_10
REMARK    3  A    between atoms: C_15  and  O_20
REMARK    4  A    between atoms: C_16  and  O_19
REMARK                            x       y       z     vdW  Elec       q    Type
REMARK                         _______ _______ _______ _____ _____    ______ ____
ROOT
ATOM      1  C   UNL     1      20.008  34.359  56.295  0.00  0.00    +0.000 A 
ATOM      2  C   UNL     1      19.074  35.276  56.597  0.00  0.00    +0.000 A 
ATOM      3  C   UNL     1      17.965  35.555  55.688  0.00  0.00    +0.000 A 
ATOM      4  C   UNL     1      17.071  36.491  56.069  0.00  0.00    +0.000 A 
ATOM      5  C   UNL     1      17.189  37.206  57.331  0.00  0.00    +0.000 A 
ATOM      6  C   UNL     1      16.299  38.136  57.705  0.00  0.00    +0.000 A 
ATOM      7  C   UNL     1      15.196  38.437  56.834  0.00  0.00    +0.000 A 
ATOM      8  C   UNL     1      15.068  37.788  55.665  0.00  0.00    +0.000 A 
ATOM      9  O   UNL     1      15.978  36.821  55.261  0.00  0.00    +0.000 OA
ATOM     10  O   UNL     1      18.274  36.908  58.183  0.00  0.00    +0.000 OA
ATOM     11  C   UNL     1      19.229  35.983  57.891  0.00  0.00    +0.000 A 
ATOM     12  O   UNL     1      20.155  35.760  58.662  0.00  0.00    +0.000 OA
ATOM     13  C   UNL     1      17.894  34.804  54.427  0.00  0.00    +0.000 A 
ATOM     14  C   UNL     1      18.816  33.885  54.100  0.00  0.00    +0.000 A 
ATOM     15  C   UNL     1      19.951  33.595  55.029  0.00  0.00    +0.000 A 
ATOM     16  O   UNL     1      20.819  32.764  54.783  0.00  0.00    +0.000 OA
ENDROOT
BRANCH   8  17
ATOM     17  O   UNL     1      14.016  38.067  54.821  0.00  0.00    +0.000 OA
ATOM     18  H   UNL     1      13.678  38.938  55.109  0.00  0.00    +0.000 HD
ENDBRANCH   8  17
BRANCH   7  19
ATOM     19  O   UNL     1      14.286  39.395  57.225  0.00  0.00    +0.000 OA
ATOM     20  H   UNL     1      13.389  39.021  57.171  0.00  0.00    +0.000 HD
ENDBRANCH   7  19
BRANCH  14  21
ATOM     21  O   UNL     1      18.734  33.188  52.904  0.00  0.00    +0.000 OA
ATOM     22  H   UNL     1      18.757  32.242  53.151  0.00  0.00    +0.000 HD
ENDBRANCH  14  21
BRANCH  13  23
ATOM     23  O   UNL     1      16.859  35.034  53.528  0.00  0.00    +0.000 OA
ATOM     24  H   UNL     1      16.017  34.712  53.905  0.00  0.00    +0.000 HD
ENDBRANCH  13  23
TORSDOF 4
ENDMDL
MODEL 4
REMARK VINA RESULT:    -7.857      2.655      6.880
REMARK INTER + INTRA:          -8.776
REMARK INTER:                  -8.776
REMARK INTRA:                   0.000
REMARK UNBOUND:                 0.000
REMARK  Name = 
REMARK  4 active torsions:
REMARK  status: ('A' for Active; 'I' for Inactive)
REMARK    1  A    between atoms: C_7  and  O_11
REMARK    2  A    between atoms: C_8  and  O_10
REMARK    3  A    between atoms: C_15  and  O_20
REMARK    4  A    between atoms: C_16  and  O_19
REMARK                            x       y       z     vdW  Elec       q    Type
REMARK                         _______ _______ _______ _____ _____    ______ ____
ROOT
ATOM      1  C   UNL     1      17.229  37.924  58.069  0.00  0.00    +0.000 A 
ATOM      2  C   UNL     1      17.734  37.057  57.176  0.00  0.00    +0.000 A 
ATOM      3  C   UNL     1      16.956  36.624  56.018  0.00  0.00    +0.000 A 
ATOM      4  C   UNL     1      17.539  35.751  55.170  0.00  0.00    +0.000 A 
ATOM      5  C   UNL     1      18.888  35.249  55.383  0.00  0.00    +0.000 A 
ATOM      6  C   UNL     1      19.463  34.381  54.539  0.00  0.00    +0.000 A 
ATOM      7  C   UNL     1      18.726  33.931  53.389  0.00  0.00    +0.000 A 
ATOM      8  C   UNL     1      17.480  34.384  53.174  0.00  0.00    +0.000 A 
ATOM      9  O   UNL     1      16.867  35.283  54.036  0.00  0.00    +0.000 OA
ATOM     10  O   UNL     1      19.608  35.691  56.513  0.00  0.00    +0.000 OA
ATOM     11  C   UNL     1      19.111  36.568  57.427  0.00  0.00    +0.000 A 
ATOM     12  O   UNL     1      19.773  36.923  58.395  0.00  0.00    +0.000 OA
ATOM     13  C   UNL     1      15.598  37.161  55.851  0.00  0.00    +0.000 A 
ATOM     14  C   UNL     1      15.070  38.027  56.730  0.00  0.00    +0.000 A 
ATOM     15  C   UNL     1      15.863  38.475  57.916  0.00  0.00    +0.000 A 
ATOM     16  O   UNL     1      15.432  39.264  58.748  0.00  0.00    +0.000 OA
ENDROOT
BRANCH   8  17
ATOM     17  O   UNL     1      16.762  33.961  52.077  0.00  0.00    +0.000 OA
ATOM     18  H   UNL     1      16.441  33.067  52.307  0.00  0.00    +0.000 HD
ENDBRANCH   8  17
BRANCH   7  19
ATOM     19  O   UNL     1      19.324  33.039  52.527  0.00  0.00    +0.000 OA
ATOM     20  H   UNL     1      20.170  33.410  52.223  0.00  0.00    +0.000 HD
ENDBRANCH   7  19
BRANCH  14  21
ATOM     21  O   UNL     1      13.786  38.522  56.558  0.00  0.00    +0.000 OA
ATOM     22  H   UNL     1      13.879  39.495  56.557  0.00  0.00    +0.000 HD
ENDBRANCH  14  21
BRANCH  13  23
ATOM     23  O   UNL     1      14.818  36.779  54.767  0.00  0.00    +0.000 OA
ATOM     24  H   UNL     1      14.405  37.568  54.363  0.00  0.00    +0.000 HD
ENDBRANCH  13  23
TORSDOF 4
ENDMDL
MODEL 5
REMARK VINA RESULT:    -7.769      1.409      3.861
REMARK INTER + INTRA:          -8.678
REMARK INTER:                  -8.678
REMARK INTRA:                   0.000
REMARK UNBOUND:                 0.000
REMARK  Name = 
REMARK  4 active torsions:
REMARK  status: ('A' for Active; 'I' for Inactive)
REMARK    1  A    between atoms: C_7  and  O_11
REMARK    2  A    between atoms: C_8  and  O_10
REMARK    3  A    between atoms: C_15  and  O_20
REMARK    4  A    between atoms: C_16  and  O_19
REMARK                            x       y       z     vdW  Elec       q    Type
REMARK                         _______ _______ _______ _____ _____    ______ ____
ROOT
ATOM      1  C   UNL     1      17.258  37.966  57.793  0.00  0.00    +0.000 A 
ATOM      2  C   UNL     1      16.792  39.179  58.130  0.00  0.00    +0.000 A 
ATOM      3  C   UNL     1      15.361  39.472  58.112  0.00  0.00    +0.000 A 
ATOM      4  C   UNL     1      14.977  40.717  58.465  0.00  0.00    +0.000 A 
ATOM      5  C   UNL     1      15.936  41.742  58.850  0.00  0.00    +0.000 A 
ATOM      6  C   UNL     1      15.551  42.978  59.198  0.00  0.00    +0.000 A 
ATOM      7  C   UNL     1      14.150  43.301  59.190  0.00  0.00    +0.000 A 
ATOM      8  C   UNL     1      13.250  42.369  58.839  0.00  0.00    +0.000 A 
ATOM      9  O   UNL     1      13.628  41.084  58.476  0.00  0.00    +0.000 OA
ATOM     10  O   UNL     1      17.310  41.421  58.855  0.00  0.00    +0.000 OA
ATOM     11  C   UNL     1      17.799  40.196  58.516  0.00  0.00    +0.000 A 
ATOM     12  O   UNL     1      19.002  39.964  58.534  0.00  0.00    +0.000 OA
ATOM     13  C   UNL     1      14.436  38.401  57.714  0.00  0.00    +0.000 A 
ATOM     14  C   UNL     1      14.877  37.180  57.372  0.00  0.00    +0.000 A 
ATOM     15  C   UNL     1      16.341  36.876  57.390  0.00  0.00    +0.000 A 
ATOM     16  O   UNL     1      16.799  35.779  57.090  0.00  0.00    +0.000 OA
ENDROOT
BRANCH   8  17
ATOM     17  O   UNL     1      11.904  42.666  58.827  0.00  0.00    +0.000 OA
ATOM     18  H   UNL     1      11.525  42.172  59.581  0.00  0.00    +0.000 HD
ENDBRANCH   8  17
BRANCH   7  19
ATOM     19  O   UNL     1      13.763  44.574  59.549  0.00  0.00    +0.000 OA
ATOM     20  H   UNL     1      14.330  44.885  60.276  0.00  0.00    +0.000 HD
ENDBRANCH   7  19
BRANCH  14  21
ATOM     21  O   UNL     1      13.990  36.183  56.997  0.00  0.00    +0.000 OA
ATOM     22  H   UNL     1      14.526  35.526  56.509  0.00  0.00    +0.000 HD
ENDBRANCH  14  21
BRANCH  13  23
ATOM     23  O   UNL     1      13.066  38.629  57.681  0.00  0.00    +0.000 OA
ATOM     24  H   UNL     1      12.706  38.614  58.589  0.00  0.00    +0.000 HD
ENDBRANCH  13  23
TORSDOF 4
ENDMDL
MODEL 6
REMARK VINA RESULT:    -7.712      2.246      6.852
REMARK INTER + INTRA:          -8.613
REMARK INTER:                  -8.613
REMARK INTRA:                   0.000
REMARK UNBOUND:                 0.000
REMARK  Name = 
REMARK  4 active torsions:
REMARK  status: ('A' for Active; 'I' for Inactive)
REMARK    1  A    between atoms: C_7  and  O_11
REMARK    2  A    between atoms: C_8  and  O_10
REMARK    3  A    between atoms: C_15  and  O_20
REMARK    4  A    between atoms: C_16  and  O_19
REMARK                            x       y       z     vdW  Elec       q    Type
REMARK                         _______ _______ _______ _____ _____    ______ ____
ROOT
ATOM      1  C   UNL     1      16.859  38.186  58.140  0.00  0.00    +0.000 A 
ATOM      2  C   UNL     1      17.608  37.191  57.639  0.00  0.00    +0.000 A 
ATOM      3  C   UNL     1      17.236  36.513  56.400  0.00  0.00    +0.000 A 
ATOM      4  C   UNL     1      18.045  35.523  55.967  0.00  0.00    +0.000 A 
ATOM      5  C   UNL     1      19.245  35.131  56.691  0.00  0.00    +0.000 A 
ATOM      6  C   UNL     1      20.045  34.146  56.258  0.00  0.00    +0.000 A 
ATOM      7  C   UNL     1      19.708  33.456  55.043  0.00  0.00    +0.000 A 
ATOM      8  C   UNL     1      18.605  33.804  54.359  0.00  0.00    +0.000 A 
ATOM      9  O   UNL     1      17.765  34.821  54.790  0.00  0.00    +0.000 OA
ATOM     10  O   UNL     1      19.572  35.810  57.884  0.00  0.00    +0.000 OA
ATOM     11  C   UNL     1      18.822  36.820  58.405  0.00  0.00    +0.000 A 
ATOM     12  O   UNL     1      19.145  37.380  59.447  0.00  0.00    +0.000 OA
ATOM     13  C   UNL     1      16.014  36.948  55.709  0.00  0.00    +0.000 A 
ATOM     14  C   UNL     1      15.247  37.939  56.189  0.00  0.00    +0.000 A 
ATOM     15  C   UNL     1      15.625  38.637  57.456  0.00  0.00    +0.000 A 
ATOM     16  O   UNL     1      14.964  39.549  57.939  0.00  0.00    +0.000 OA
ENDROOT
BRANCH   8  17
ATOM     17  O   UNL     1      18.271  33.150  53.193  0.00  0.00    +0.000 OA
ATOM     18  H   UNL     1      18.995  32.513  53.038  0.00  0.00    +0.000 HD
ENDBRANCH   8  17
BRANCH   7  19
ATOM     19  O   UNL     1      20.534  32.445  54.605  0.00  0.00    +0.000 OA
ATOM     20  H   UNL     1      20.809  32.634  53.691  0.00  0.00    +0.000 HD
ENDBRANCH   7  19
BRANCH  14  21
ATOM     21  O   UNL     1      14.096  38.334  55.525  0.00  0.00    +0.000 OA
ATOM     22  H   UNL     1      13.995  37.706  54.782  0.00  0.00    +0.000 HD
ENDBRANCH  14  21
BRANCH  13  23
ATOM     23  O   UNL     1      15.617  36.334  54.527  0.00  0.00    +0.000 OA
ATOM     24  H   UNL     1      14.719  35.962  54.633  0.00  0.00    +0.000 HD
ENDBRANCH  13  23
TORSDOF 4
ENDMDL
MODEL 7
REMARK VINA RESULT:    -7.427      1.617      6.334
REMARK INTER + INTRA:          -8.296
REMARK INTER:                  -8.296
REMARK INTRA:                   0.000
REMARK UNBOUND:                 0.000
REMARK  Name = 
REMARK  4 active torsions:
REMARK  status: ('A' for Active; 'I' for Inactive)
REMARK    1  A    between atoms: C_7  and  O_11
REMARK    2  A    between atoms: C_8  and  O_10
REMARK    3  A    between atoms: C_15  and  O_20
REMARK    4  A    between atoms: C_16  and  O_19
REMARK                            x       y       z     vdW  Elec       q    Type
REMARK                         _______ _______ _______ _____ _____    ______ ____
ROOT
ATOM      1  C   UNL     1      16.053  39.439  58.172  0.00  0.00    +0.000 A 
ATOM      2  C   UNL     1      17.040  38.529  58.124  0.00  0.00    +0.000 A 
ATOM      3  C   UNL     1      16.773  37.142  57.751  0.00  0.00    +0.000 A 
ATOM      4  C   UNL     1      17.822  36.293  57.728  0.00  0.00    +0.000 A 
ATOM      5  C   UNL     1      19.173  36.723  58.057  0.00  0.00    +0.000 A 
ATOM      6  C   UNL     1      20.212  35.875  58.033  0.00  0.00    +0.000 A 
ATOM      7  C   UNL     1      19.986  34.502  57.673  0.00  0.00    +0.000 A 
ATOM      8  C   UNL     1      18.746  34.086  57.364  0.00  0.00    +0.000 A 
ATOM      9  O   UNL     1      17.658  34.948  57.382  0.00  0.00    +0.000 OA
ATOM     10  O   UNL     1      19.391  38.071  58.411  0.00  0.00    +0.000 OA
ATOM     11  C   UNL     1      18.402  39.004  58.466  0.00  0.00    +0.000 A 
ATOM     12  O   UNL     1      18.639  40.165  58.781  0.00  0.00    +0.000 OA
ATOM     13  C   UNL     1      15.391  36.761  57.429  0.00  0.00    +0.000 A 
ATOM     14  C   UNL     1      14.386  37.651  57.472  0.00  0.00    +0.000 A 
ATOM     15  C   UNL     1      14.655  39.072  57.851  0.00  0.00    +0.000 A 
ATOM     16  O   UNL     1      13.778  39.927  57.904  0.00  0.00    +0.000 OA
ENDROOT
BRANCH   8  17
ATOM     17  O   UNL     1      18.515  32.773  57.017  0.00  0.00    +0.000 OA
ATOM     18  H   UNL     1      18.086  32.372  57.798  0.00  0.00    +0.000 HD
ENDBRANCH   8  17
BRANCH   7  19
ATOM     19  O   UNL     1      21.058  33.638  57.651  0.00  0.00    +0.000 OA
ATOM     20  H   UNL     1      21.868  34.132  57.870  0.00  0.00    +0.000 HD
ENDBRANCH   7  19
BRANCH  14  21
ATOM     21  O   UNL     1      13.088  37.274  57.167  0.00  0.00    +0.000 OA
ATOM     22  H   UNL     1      12.515  37.831  57.731  0.00  0.00    +0.000 HD
ENDBRANCH  14  21
BRANCH  13  23
ATOM     23  O   UNL     1      15.085  35.454  57.070  0.00  0.00    +0.000 OA
ATOM     24  H   UNL     1      15.437  35.266  56.178  0.00  0.00    +0.000 HD
ENDBRANCH  13  23
TORSDOF 4
ENDMDL
MODEL 8
REMARK VINA RESULT:    -7.322      4.455      6.817
REMARK INTER + INTRA:          -8.178
REMARK INTER:                  -8.178
REMARK INTRA:                   0.000
REMARK UNBOUND:                 0.000
REMARK  Name = 
REMARK  4 active torsions:
REMARK  status: ('A' for Active; 'I' for Inactive)
REMARK    1  A    between atoms: C_7  and  O_11
REMARK    2  A    between atoms: C_8  and  O_10
REMARK    3  A    between atoms: C_15  and  O_20
REMARK    4  A    between atoms: C_16  and  O_19
REMARK                            x       y       z     vdW  Elec       q    Type
REMARK                         _______ _______ _______ _____ _____    ______ ____
ROOT
ATOM      1  C   UNL     1      16.152  42.269  59.500  0.00  0.00    +0.000 A 
ATOM      2  C   UNL     1      15.034  42.846  59.968  0.00  0.00    +0.000 A 
ATOM      3  C   UNL     1      13.928  43.188  59.076  0.00  0.00    +0.000 A 
ATOM      4  C   UNL     1      12.841  43.766  59.628  0.00  0.00    +0.000 A 
ATOM      5  C   UNL     1      12.754  44.047  61.054  0.00  0.00    +0.000 A 
ATOM      6  C   UNL     1      11.672  44.623  61.598  0.00  0.00    +0.000 A 
ATOM      7  C   UNL     1      10.566  44.973  60.750  0.00  0.00    +0.000 A 
ATOM      8  C   UNL     1      10.627  44.721  59.432  0.00  0.00    +0.000 A 
ATOM      9  O   UNL     1      11.736  44.125  58.849  0.00  0.00    +0.000 OA
ATOM     10  O   UNL     1      13.842  43.702  61.883  0.00  0.00    +0.000 OA
ATOM     11  C   UNL     1      14.983  43.117  61.425  0.00  0.00    +0.000 A 
ATOM     12  O   UNL     1      15.903  42.837  62.183  0.00  0.00    +0.000 OA
ATOM     13  C   UNL     1      14.068  42.882  57.645  0.00  0.00    +0.000 A 
ATOM     14  C   UNL     1      15.177  42.307  57.153  0.00  0.00    +0.000 A 
ATOM     15  C   UNL     1      16.310  41.955  58.062  0.00  0.00    +0.000 A 
ATOM     16  O   UNL     1      17.343  41.426  57.668  0.00  0.00    +0.000 OA
ENDROOT
BRANCH   8  17
ATOM     17  O   UNL     1       9.573  45.052  58.607  0.00  0.00    +0.000 OA
ATOM     18  H   UNL     1       8.819  44.518  58.925  0.00  0.00    +0.000 HD
ENDBRANCH   8  17
BRANCH   7  19
ATOM     19  O   UNL     1       9.459  45.565  61.316  0.00  0.00    +0.000 OA
ATOM     20  H   UNL     1       9.040  46.149  60.659  0.00  0.00    +0.000 HD
ENDBRANCH   7  19
BRANCH  14  21
ATOM     21  O   UNL     1      15.292  42.029  55.799  0.00  0.00    +0.000 OA
ATOM     22  H   UNL     1      14.396  41.767  55.509  0.00  0.00    +0.000 HD
ENDBRANCH  14  21
BRANCH  13  23
ATOM     23  O   UNL     1      13.045  43.188  56.756  0.00  0.00    +0.000 OA
ATOM     24  H   UNL     1      12.180  43.005  57.173  0.00  0.00    +0.000 HD
ENDBRANCH  13  23
TORSDOF 4
ENDMDL
MODEL 9
REMARK VINA RESULT:    -7.287      2.894      4.697
REMARK INTER + INTRA:          -8.139
REMARK INTER:                  -8.139
REMARK INTRA:                   0.000
REMARK UNBOUND:                 0.000
REMARK  Name = 
REMARK  4 active torsions:
REMARK  status: ('A' for Active; 'I' for Inactive)
REMARK    1  A    between atoms: C_7  and  O_11
REMARK    2  A    between atoms: C_8  and  O_10
REMARK    3  A    between atoms: C_15  and  O_20
REMARK    4  A    between atoms: C_16  and  O_19
REMARK                            x       y       z     vdW  Elec       q    Type
REMARK                         _______ _______ _______ _____ _____    ______ ____
ROOT
ATOM      1  C   UNL     1      19.745  33.223  54.620  0.00  0.00    +0.000 A 
ATOM      2  C   UNL     1      18.778  34.151  54.699  0.00  0.00    +0.000 A 
ATOM      3  C   UNL     1      18.558  34.913  55.926  0.00  0.00    +0.000 A 
ATOM      4  C   UNL     1      17.564  35.825  55.920  0.00  0.00    +0.000 A 
ATOM      5  C   UNL     1      16.733  36.057  54.749  0.00  0.00    +0.000 A 
ATOM      6  C   UNL     1      15.745  36.965  54.748  0.00  0.00    +0.000 A 
ATOM      7  C   UNL     1      15.500  37.731  55.939  0.00  0.00    +0.000 A 
ATOM      8  C   UNL     1      16.257  37.532  57.031  0.00  0.00    +0.000 A 
ATOM      9  O   UNL     1      17.283  36.599  57.051  0.00  0.00    +0.000 OA
ATOM     10  O   UNL     1      16.976  35.303  53.582  0.00  0.00    +0.000 OA
ATOM     11  C   UNL     1      17.952  34.358  53.485  0.00  0.00    +0.000 A 
ATOM     12  O   UNL     1      18.125  33.726  52.450  0.00  0.00    +0.000 OA
ATOM     13  C   UNL     1      19.425  34.638  57.080  0.00  0.00    +0.000 A 
ATOM     14  C   UNL     1      20.398  33.715  57.027  0.00  0.00    +0.000 A 
ATOM     15  C   UNL     1      20.628  32.934  55.773  0.00  0.00    +0.000 A 
ATOM     16  O   UNL     1      21.502  32.082  55.667  0.00  0.00    +0.000 OA
ENDROOT
BRANCH   8  17
ATOM     17  O   UNL     1      16.032  38.260  58.179  0.00  0.00    +0.000 OA
ATOM     18  H   UNL     1      16.862  38.196  58.691  0.00  0.00    +0.000 HD
ENDBRANCH   8  17
BRANCH   7  19
ATOM     19  O   UNL     1      14.483  38.660  55.930  0.00  0.00    +0.000 OA
ATOM     20  H   UNL     1      14.402  39.049  56.819  0.00  0.00    +0.000 HD
ENDBRANCH   7  19
BRANCH  14  21
ATOM     21  O   UNL     1      21.206  33.468  58.127  0.00  0.00    +0.000 OA
ATOM     22  H   UNL     1      21.020  34.194  58.755  0.00  0.00    +0.000 HD
ENDBRANCH  14  21
BRANCH  13  23
ATOM     23  O   UNL     1      19.256  35.335  58.271  0.00  0.00    +0.000 OA
ATOM     24  H   UNL     1      19.916  35.035  58.926  0.00  0.00    +0.000 HD
ENDBRANCH  13  23
TORSDOF 4
ENDMDL
