MODEL 1
REMARK VINA RESULT:    -6.846      0.000      0.000
REMARK INTER + INTRA:          -7.712
REMARK INTER:                  -7.647
REMARK INTRA:                  -0.065
REMARK UNBOUND:                -0.065
REMARK  Name = 
REMARK  3 active torsions:
REMARK  status: ('A' for Active; 'I' for Inactive)
REMARK    1  A    between atoms: C_2  and  O_3
REMARK    2  A    between atoms: C_2  and  C_4
REMARK    3  A    between atoms: C_11  and  O_12
REMARK                            x       y       z     vdW  Elec       q    Type
REMARK                         _______ _______ _______ _____ _____    ______ ____
ROOT
ATOM      1  C   UNL     1      17.236  35.841  55.852  0.00  0.00    +0.000 C 
ATOM      2  C   UNL     1      17.411  35.917  54.381  0.00  0.00    +0.000 C 
ATOM      3  C   UNL     1      18.281  35.121  53.721  0.00  0.00    +0.000 C 
ATOM      4  C   UNL     1      19.081  34.255  54.532  0.00  0.00    +0.000 C 
ATOM      5  N   UNL     1      19.992  33.333  54.150  0.00  0.00    +0.000 N 
ATOM      6  C   UNL     1      20.659  32.849  55.260  0.00  0.00    +0.000 C 
ATOM      7  O   UNL     1      21.525  31.997  55.317  0.00  0.00    +0.000 OA
ATOM      8  C   UNL     1      20.091  33.575  56.442  0.00  0.00    +0.000 C 
ATOM      9  C   UNL     1      19.118  34.363  55.971  0.00  0.00    +0.000 C 
ATOM     10  C   UNL     1      18.116  35.166  56.635  0.00  0.00    +0.000 C 
ATOM     11  H   UNL     1      20.173  33.018  53.210  0.00  0.00    +0.000 HD
ENDROOT
BRANCH   1  13
ATOM     12  O   UNL     1      16.090  37.516  57.132  0.00  0.00    +0.000 OA
ATOM     13  C   UNL     1      16.062  36.456  56.529  0.00  0.00    +0.000 C 
BRANCH  13  14
ATOM     14  O   UNL     1      14.955  35.682  56.469  0.00  0.00    +0.000 OA
ATOM     15  H   UNL     1      14.219  35.983  57.035  0.00  0.00    +0.000 HD
ENDBRANCH  13  14
ENDBRANCH   1  13
BRANCH   8  16
ATOM     16  O   UNL     1      20.504  33.379  57.726  0.00  0.00    +0.000 OA
ATOM     17  H   UNL     1      21.054  34.160  57.941  0.00  0.00    +0.000 HD
ENDBRANCH   8  16
TORSDOF 3
ENDMDL
MODEL 2
REMARK VINA RESULT:    -6.829      2.605      4.343
REMARK INTER + INTRA:          -7.692
REMARK INTER:                  -7.623
REMARK INTRA:                  -0.069
REMARK UNBOUND:                -0.065
REMARK  Name = 
REMARK  3 active torsions:
REMARK  status: ('A' for Active; 'I' for Inactive)
REMARK    1  A    between atoms: C_2  and  O_3
REMARK    2  A    between atoms: C_2  and  C_4
REMARK    3  A    between atoms: C_11  and  O_12
REMARK                            x       y       z     vdW  Elec       q    Type
REMARK                         _______ _______ _______ _____ _____    ______ ____
ROOT
ATOM      1  C   UNL     1      17.738  34.358  53.473  0.00  0.00    +0.000 C 
ATOM      2  C   UNL     1      19.220  34.410  53.445  0.00  0.00    +0.000 C 
ATOM      3  C   UNL     1      19.936  34.976  54.442  0.00  0.00    +0.000 C 
ATOM      4  C   UNL     1      19.179  35.592  55.488  0.00  0.00    +0.000 C 
ATOM      5  N   UNL     1      19.618  36.189  56.618  0.00  0.00    +0.000 N 
ATOM      6  C   UNL     1      18.562  36.805  57.261  0.00  0.00    +0.000 C 
ATOM      7  O   UNL     1      18.562  37.418  58.312  0.00  0.00    +0.000 OA
ATOM      8  C   UNL     1      17.351  36.559  56.411  0.00  0.00    +0.000 C 
ATOM      9  C   UNL     1      17.752  35.789  55.395  0.00  0.00    +0.000 C 
ATOM     10  C   UNL     1      17.020  35.098  54.356  0.00  0.00    +0.000 C 
ATOM     11  H   UNL     1      20.564  36.193  56.969  0.00  0.00    +0.000 HD
ENDROOT
BRANCH   1  13
ATOM     12  O   UNL     1      17.185  33.333  51.374  0.00  0.00    +0.000 OA
ATOM     13  C   UNL     1      16.973  33.454  52.570  0.00  0.00    +0.000 C 
BRANCH  13  14
ATOM     14  O   UNL     1      15.960  32.817  53.198  0.00  0.00    +0.000 OA
ATOM     15  H   UNL     1      15.445  32.216  52.629  0.00  0.00    +0.000 HD
ENDBRANCH  13  14
ENDBRANCH   1  13
BRANCH   8  16
ATOM     16  O   UNL     1      16.104  37.023  56.710  0.00  0.00    +0.000 OA
ATOM     17  H   UNL     1      16.250  37.878  57.164  0.00  0.00    +0.000 HD
ENDBRANCH   8  16
TORSDOF 3
ENDMDL
MODEL 3
REMARK VINA RESULT:    -6.798      4.652      6.808
REMARK INTER + INTRA:          -7.658
REMARK INTER:                  -7.595
REMARK INTRA:                  -0.064
REMARK UNBOUND:                -0.065
REMARK  Name = 
REMARK  3 active torsions:
REMARK  status: ('A' for Active; 'I' for Inactive)
REMARK    1  A    between atoms: C_2  and  O_3
REMARK    2  A    between atoms: C_2  and  C_4
REMARK    3  A    between atoms: C_11  and  O_12
REMARK                            x       y       z     vdW  Elec       q    Type
REMARK                         _______ _______ _______ _____ _____    ______ ____
ROOT
ATOM      1  C   UNL     1      15.825  37.188  57.145  0.00  0.00    +0.000 C 
ATOM      2  C   UNL     1      17.258  37.001  57.482  0.00  0.00    +0.000 C 
ATOM      3  C   UNL     1      17.993  37.981  58.054  0.00  0.00    +0.000 C 
ATOM      4  C   UNL     1      17.330  39.235  58.243  0.00  0.00    +0.000 C 
ATOM      5  N   UNL     1      17.796  40.364  58.821  0.00  0.00    +0.000 N 
ATOM      6  C   UNL     1      16.891  41.391  58.634  0.00  0.00    +0.000 C 
ATOM      7  O   UNL     1      16.950  42.541  59.028  0.00  0.00    +0.000 OA
ATOM      8  C   UNL     1      15.757  40.813  57.842  0.00  0.00    +0.000 C 
ATOM      9  C   UNL     1      16.033  39.515  57.677  0.00  0.00    +0.000 C 
ATOM     10  C   UNL     1      15.252  38.419  57.148  0.00  0.00    +0.000 C 
ATOM     11  H   UNL     1      18.663  40.469  59.326  0.00  0.00    +0.000 HD
ENDROOT
BRANCH   1  13
ATOM     12  O   UNL     1      14.985  35.380  55.809  0.00  0.00    +0.000 OA
ATOM     13  C   UNL     1      14.940  36.031  56.840  0.00  0.00    +0.000 C 
BRANCH  13  14
ATOM     14  O   UNL     1      14.018  35.806  57.803  0.00  0.00    +0.000 OA
ATOM     15  H   UNL     1      13.118  36.111  57.582  0.00  0.00    +0.000 HD
ENDBRANCH  13  14
ENDBRANCH   1  13
BRANCH   8  16
ATOM     16  O   UNL     1      14.664  41.525  57.446  0.00  0.00    +0.000 OA
ATOM     17  H   UNL     1      14.239  40.980  56.753  0.00  0.00    +0.000 HD
ENDBRANCH   8  16
TORSDOF 3
ENDMDL
MODEL 4
REMARK VINA RESULT:    -6.771      4.432      7.078
REMARK INTER + INTRA:          -7.628
REMARK INTER:                  -7.562
REMARK INTRA:                  -0.066
REMARK UNBOUND:                -0.065
REMARK  Name = 
REMARK  3 active torsions:
REMARK  status: ('A' for Active; 'I' for Inactive)
REMARK    1  A    between atoms: C_2  and  O_3
REMARK    2  A    between atoms: C_2  and  C_4
REMARK    3  A    between atoms: C_11  and  O_12
REMARK                            x       y       z     vdW  Elec       q    Type
REMARK                         _______ _______ _______ _____ _____    ______ ____
ROOT
ATOM      1  C   UNL     1      18.018  37.636  58.086  0.00  0.00    +0.000 C 
ATOM      2  C   UNL     1      16.800  37.034  57.488  0.00  0.00    +0.000 C 
ATOM      3  C   UNL     1      15.761  37.789  57.069  0.00  0.00    +0.000 C 
ATOM      4  C   UNL     1      15.869  39.196  57.306  0.00  0.00    +0.000 C 
ATOM      5  N   UNL     1      15.016  40.185  56.960  0.00  0.00    +0.000 N 
ATOM      6  C   UNL     1      15.420  41.373  57.539  0.00  0.00    +0.000 C 
ATOM      7  O   UNL     1      14.921  42.478  57.439  0.00  0.00    +0.000 OA
ATOM      8  C   UNL     1      16.652  41.057  58.333  0.00  0.00    +0.000 C 
ATOM      9  C   UNL     1      16.915  39.762  58.124  0.00  0.00    +0.000 C 
ATOM     10  C   UNL     1      18.045  38.934  58.481  0.00  0.00    +0.000 C 
ATOM     11  H   UNL     1      14.206  40.101  56.366  0.00  0.00    +0.000 HD
ENDROOT
BRANCH   1  13
ATOM     12  O   UNL     1      19.771  36.533  59.299  0.00  0.00    +0.000 OA
ATOM     13  C   UNL     1      19.279  36.858  58.230  0.00  0.00    +0.000 C 
BRANCH  13  14
ATOM     14  O   UNL     1      19.876  36.598  57.045  0.00  0.00    +0.000 OA
ATOM     15  H   UNL     1      19.259  36.458  56.303  0.00  0.00    +0.000 HD
ENDBRANCH  13  14
ENDBRANCH   1  13
BRANCH   8  16
ATOM     16  O   UNL     1      17.344  41.976  59.063  0.00  0.00    +0.000 OA
ATOM     17  H   UNL     1      17.816  42.524  58.404  0.00  0.00    +0.000 HD
ENDBRANCH   8  16
TORSDOF 3
ENDMDL
MODEL 5
REMARK VINA RESULT:    -6.758      3.376      4.028
REMARK INTER + INTRA:          -7.613
REMARK INTER:                  -7.551
REMARK INTRA:                  -0.062
REMARK UNBOUND:                -0.065
REMARK  Name = 
REMARK  3 active torsions:
REMARK  status: ('A' for Active; 'I' for Inactive)
REMARK    1  A    between atoms: C_2  and  O_3
REMARK    2  A    between atoms: C_2  and  C_4
REMARK    3  A    between atoms: C_11  and  O_12
REMARK                            x       y       z     vdW  Elec       q    Type
REMARK                         _______ _______ _______ _____ _____    ______ ____
ROOT
ATOM      1  C   UNL     1      15.412  37.790  57.207  0.00  0.00    +0.000 C 
ATOM      2  C   UNL     1      16.056  38.994  57.787  0.00  0.00    +0.000 C 
ATOM      3  C   UNL     1      17.356  39.003  58.155  0.00  0.00    +0.000 C 
ATOM      4  C   UNL     1      18.055  37.761  58.027  0.00  0.00    +0.000 C 
ATOM      5  N   UNL     1      19.354  37.487  58.274  0.00  0.00    +0.000 N 
ATOM      6  C   UNL     1      19.568  36.125  58.190  0.00  0.00    +0.000 C 
ATOM      7  O   UNL     1      20.607  35.506  58.326  0.00  0.00    +0.000 OA
ATOM      8  C   UNL     1      18.240  35.510  57.866  0.00  0.00    +0.000 C 
ATOM      9  C   UNL     1      17.378  36.522  57.725  0.00  0.00    +0.000 C 
ATOM     10  C   UNL     1      16.010  36.572  57.259  0.00  0.00    +0.000 C 
ATOM     11  H   UNL     1      20.082  38.154  58.483  0.00  0.00    +0.000 HD
ENDROOT
BRANCH   1  13
ATOM     12  O   UNL     1      13.020  37.699  57.025  0.00  0.00    +0.000 OA
ATOM     13  C   UNL     1      14.106  37.871  56.496  0.00  0.00    +0.000 C 
BRANCH  13  14
ATOM     14  O   UNL     1      14.242  38.093  55.169  0.00  0.00    +0.000 OA
ATOM     15  H   UNL     1      13.985  38.988  54.880  0.00  0.00    +0.000 HD
ENDBRANCH  13  14
ENDBRANCH   1  13
BRANCH   8  16
ATOM     16  O   UNL     1      18.038  34.171  57.712  0.00  0.00    +0.000 OA
ATOM     17  H   UNL     1      17.497  33.902  58.483  0.00  0.00    +0.000 HD
ENDBRANCH   8  16
TORSDOF 3
ENDMDL
MODEL 6
REMARK VINA RESULT:    -6.710      3.543      4.859
REMARK INTER + INTRA:          -7.559
REMARK INTER:                  -7.498
REMARK INTRA:                  -0.061
REMARK UNBOUND:                -0.065
REMARK  Name = 
REMARK  3 active torsions:
REMARK  status: ('A' for Active; 'I' for Inactive)
REMARK    1  A    between atoms: C_2  and  O_3
REMARK    2  A    between atoms: C_2  and  C_4
REMARK    3  A    between atoms: C_11  and  O_12
REMARK                            x       y       z     vdW  Elec       q    Type
REMARK                         _______ _______ _______ _____ _____    ______ ____
ROOT
ATOM      1  C   UNL     1      16.587  39.863  58.011  0.00  0.00    +0.000 C 
ATOM      2  C   UNL     1      15.400  39.260  57.357  0.00  0.00    +0.000 C 
ATOM      3  C   UNL     1      15.290  37.928  57.160  0.00  0.00    +0.000 C 
ATOM      4  C   UNL     1      16.419  37.139  57.547  0.00  0.00    +0.000 C 
ATOM      5  N   UNL     1      16.573  35.798  57.508  0.00  0.00    +0.000 N 
ATOM      6  C   UNL     1      17.882  35.470  57.806  0.00  0.00    +0.000 C 
ATOM      7  O   UNL     1      18.391  34.368  57.891  0.00  0.00    +0.000 OA
ATOM      8  C   UNL     1      18.598  36.766  58.040  0.00  0.00    +0.000 C 
ATOM      9  C   UNL     1      17.679  37.731  57.929  0.00  0.00    +0.000 C 
ATOM     10  C   UNL     1      17.727  39.150  58.205  0.00  0.00    +0.000 C 
ATOM     11  H   UNL     1      15.860  35.115  57.304  0.00  0.00    +0.000 HD
ENDROOT
BRANCH   1  13
ATOM     12  O   UNL     1      16.535  41.552  59.715  0.00  0.00    +0.000 OA
ATOM     13  C   UNL     1      16.566  41.257  58.532  0.00  0.00    +0.000 C 
BRANCH  13  14
ATOM     14  O   UNL     1      16.518  42.185  57.550  0.00  0.00    +0.000 OA
ATOM     15  H   UNL     1      15.655  42.630  57.456  0.00  0.00    +0.000 HD
ENDBRANCH  13  14
ENDBRANCH   1  13
BRANCH   8  16
ATOM     16  O   UNL     1      19.922  36.860  58.351  0.00  0.00    +0.000 OA
ATOM     17  H   UNL     1      20.308  37.432  57.657  0.00  0.00    +0.000 HD
ENDBRANCH   8  16
TORSDOF 3
ENDMDL
MODEL 7
REMARK VINA RESULT:    -6.645      2.893      3.608
REMARK INTER + INTRA:          -7.487
REMARK INTER:                  -7.414
REMARK INTRA:                  -0.073
REMARK UNBOUND:                -0.065
REMARK  Name = 
REMARK  3 active torsions:
REMARK  status: ('A' for Active; 'I' for Inactive)
REMARK    1  A    between atoms: C_2  and  O_3
REMARK    2  A    between atoms: C_2  and  C_4
REMARK    3  A    between atoms: C_11  and  O_12
REMARK                            x       y       z     vdW  Elec       q    Type
REMARK                         _______ _______ _______ _____ _____    ______ ____
ROOT
ATOM      1  C   UNL     1      15.410  36.788  56.260  0.00  0.00    +0.000 C 
ATOM      2  C   UNL     1      14.988  35.904  57.374  0.00  0.00    +0.000 C 
ATOM      3  C   UNL     1      15.879  35.349  58.224  0.00  0.00    +0.000 C 
ATOM      4  C   UNL     1      17.259  35.600  57.941  0.00  0.00    +0.000 C 
ATOM      5  N   UNL     1      18.353  35.215  58.634  0.00  0.00    +0.000 N 
ATOM      6  C   UNL     1      19.492  35.519  57.914  0.00  0.00    +0.000 C 
ATOM      7  O   UNL     1      20.657  35.346  58.221  0.00  0.00    +0.000 OA
ATOM      8  C   UNL     1      19.026  36.148  56.635  0.00  0.00    +0.000 C 
ATOM      9  C   UNL     1      17.694  36.226  56.716  0.00  0.00    +0.000 C 
ATOM     10  C   UNL     1      16.709  36.875  55.878  0.00  0.00    +0.000 C 
ATOM     11  H   UNL     1      18.368  34.779  59.544  0.00  0.00    +0.000 HD
ENDROOT
BRANCH   1  13
ATOM     12  O   UNL     1      14.522  37.971  54.369  0.00  0.00    +0.000 OA
ATOM     13  C   UNL     1      14.436  37.660  55.546  0.00  0.00    +0.000 C 
BRANCH  13  14
ATOM     14  O   UNL     1      13.465  38.138  56.356  0.00  0.00    +0.000 OA
ATOM     15  H   UNL     1      13.088  37.480  56.969  0.00  0.00    +0.000 HD
ENDBRANCH  13  14
ENDBRANCH   1  13
BRANCH   8  16
ATOM     16  O   UNL     1      19.863  36.578  55.649  0.00  0.00    +0.000 OA
ATOM     17  H   UNL     1      19.447  37.391  55.296  0.00  0.00    +0.000 HD
ENDBRANCH   8  16
TORSDOF 3
ENDMDL
MODEL 8
REMARK VINA RESULT:    -6.614      1.793      2.358
REMARK INTER + INTRA:          -7.452
REMARK INTER:                  -7.385
REMARK INTRA:                  -0.067
REMARK UNBOUND:                -0.065
REMARK  Name = 
REMARK  3 active torsions:
REMARK  status: ('A' for Active; 'I' for Inactive)
REMARK    1  A    between atoms: C_2  and  O_3
REMARK    2  A    between atoms: C_2  and  C_4
REMARK    3  A    between atoms: C_11  and  O_12
REMARK                            x       y       z     vdW  Elec       q    Type
REMARK                         _______ _______ _______ _____ _____    ______ ____
ROOT
ATOM      1  C   UNL     1      15.908  36.635  56.245  0.00  0.00    +0.000 C 
ATOM      2  C   UNL     1      16.620  36.594  54.944  0.00  0.00    +0.000 C 
ATOM      3  C   UNL     1      17.783  35.925  54.785  0.00  0.00    +0.000 C 
ATOM      4  C   UNL     1      18.329  35.324  55.963  0.00  0.00    +0.000 C 
ATOM      5  N   UNL     1      19.441  34.568  56.094  0.00  0.00    +0.000 N 
ATOM      6  C   UNL     1      19.696  34.344  57.433  0.00  0.00    +0.000 C 
ATOM      7  O   UNL     1      20.590  33.692  57.940  0.00  0.00    +0.000 OA
ATOM      8  C   UNL     1      18.619  35.058  58.193  0.00  0.00    +0.000 C 
ATOM      9  C   UNL     1      17.796  35.583  57.279  0.00  0.00    +0.000 C 
ATOM     10  C   UNL     1      16.509  36.233  57.394  0.00  0.00    +0.000 C 
ATOM     11  H   UNL     1      20.013  34.202  55.348  0.00  0.00    +0.000 HD
ENDROOT
BRANCH   1  13
ATOM     12  O   UNL     1      13.646  36.526  57.040  0.00  0.00    +0.000 OA
ATOM     13  C   UNL     1      14.487  37.069  56.342  0.00  0.00    +0.000 C 
BRANCH  13  14
ATOM     14  O   UNL     1      14.193  38.100  55.519  0.00  0.00    +0.000 OA
ATOM     15  H   UNL     1      14.469  37.969  54.592  0.00  0.00    +0.000 HD
ENDBRANCH  13  14
ENDBRANCH   1  13
BRANCH   8  16
ATOM     16  O   UNL     1      18.533  35.080  59.553  0.00  0.00    +0.000 OA
ATOM     17  H   UNL     1      19.003  35.894  59.827  0.00  0.00    +0.000 HD
ENDBRANCH   8  16
TORSDOF 3
ENDMDL
MODEL 9
REMARK VINA RESULT:    -6.579      2.532      3.493
REMARK INTER + INTRA:          -7.413
REMARK INTER:                  -7.341
REMARK INTRA:                  -0.072
REMARK UNBOUND:                -0.065
REMARK  Name = 
REMARK  3 active torsions:
REMARK  status: ('A' for Active; 'I' for Inactive)
REMARK    1  A    between atoms: C_2  and  O_3
REMARK    2  A    between atoms: C_2  and  C_4
REMARK    3  A    between atoms: C_11  and  O_12
REMARK                            x       y       z     vdW  Elec       q    Type
REMARK                         _______ _______ _______ _____ _____    ______ ____
ROOT
ATOM      1  C   UNL     1      15.451  38.380  57.267  0.00  0.00    +0.000 C 
ATOM      2  C   UNL     1      15.013  37.817  55.966  0.00  0.00    +0.000 C 
ATOM      3  C   UNL     1      15.699  36.833  55.344  0.00  0.00    +0.000 C 
ATOM      4  C   UNL     1      16.915  36.420  55.973  0.00  0.00    +0.000 C 
ATOM      5  N   UNL     1      17.773  35.443  55.606  0.00  0.00    +0.000 N 
ATOM      6  C   UNL     1      18.908  35.499  56.392  0.00  0.00    +0.000 C 
ATOM      7  O   UNL     1      19.885  34.773  56.374  0.00  0.00    +0.000 OA
ATOM      8  C   UNL     1      18.713  36.652  57.330  0.00  0.00    +0.000 C 
ATOM      9  C   UNL     1      17.492  37.139  57.084  0.00  0.00    +0.000 C 
ATOM     10  C   UNL     1      16.688  38.128  57.766  0.00  0.00    +0.000 C 
ATOM     11  H   UNL     1      17.631  34.757  54.881  0.00  0.00    +0.000 HD
ENDROOT
BRANCH   1  13
ATOM     12  O   UNL     1      14.906  39.948  59.000  0.00  0.00    +0.000 OA
ATOM     13  C   UNL     1      14.538  39.202  58.108  0.00  0.00    +0.000 C 
BRANCH  13  14
ATOM     14  O   UNL     1      13.232  38.990  57.828  0.00  0.00    +0.000 OA
ATOM     15  H   UNL     1      12.817  39.684  57.284  0.00  0.00    +0.000 HD
ENDBRANCH  13  14
ENDBRANCH   1  13
BRANCH   8  16
ATOM     16  O   UNL     1      19.629  37.038  58.263  0.00  0.00    +0.000 OA
ATOM     17  H   UNL     1      19.668  38.014  58.196  0.00  0.00    +0.000 HD
ENDBRANCH   8  16
TORSDOF 3
ENDMDL
