MODEL 1
REMARK VINA RESULT:    -4.032      0.000      0.000
REMARK INTER + INTRA:          -4.385
REMARK INTER:                  -4.385
REMARK INTRA:                   0.000
REMARK UNBOUND:                 0.000
REMARK  Name = 
REMARK  2 active torsions:
REMARK  status: ('A' for Active; 'I' for Inactive)
REMARK    1  A    between atoms: O_1  and  C_2
REMARK    2  A    between atoms: C_2  and  C_4
REMARK                            x       y       z     vdW  Elec       q    Type
REMARK                         _______ _______ _______ _____ _____    ______ ____
ROOT
ATOM      1  C   UNL     1      19.934  32.947  56.594  0.00  0.00    +0.000 C 
ATOM      2  O   UNL     1      19.137  32.090  56.949  0.00  0.00    +0.000 OA
ATOM      3  N   UNL     1      20.307  34.033  57.332  0.00  0.00    +0.000 N 
ATOM      4  H   UNL     1      20.979  34.696  56.958  0.00  0.00    +0.000 HD
ATOM      5  H   UNL     1      19.917  34.179  58.252  0.00  0.00    +0.000 HD
ENDROOT
BRANCH   1   6
ATOM      6  C   UNL     1      20.595  32.826  55.206  0.00  0.00    +0.000 C 
ATOM      7  O   UNL     1      21.734  32.428  55.050  0.00  0.00    +0.000 OA
BRANCH   6   8
ATOM      8  O   UNL     1      19.745  33.214  54.238  0.00  0.00    +0.000 OA
ATOM      9  H   UNL     1      19.519  34.164  54.376  0.00  0.00    +0.000 HD
ENDBRANCH   6   8
ENDBRANCH   1   6
TORSDOF 2
ENDMDL
MODEL 2
REMARK VINA RESULT:    -3.981      1.612      2.697
REMARK INTER + INTRA:          -4.330
REMARK INTER:                  -4.330
REMARK INTRA:                   0.000
REMARK UNBOUND:                 0.000
REMARK  Name = 
REMARK  2 active torsions:
REMARK  status: ('A' for Active; 'I' for Inactive)
REMARK    1  A    between atoms: O_1  and  C_2
REMARK    2  A    between atoms: C_2  and  C_4
REMARK                            x       y       z     vdW  Elec       q    Type
REMARK                         _______ _______ _______ _____ _____    ______ ____
ROOT
ATOM      1  C   UNL     1      20.566  32.862  55.250  0.00  0.00    +0.000 C 
ATOM      2  O   UNL     1      21.680  32.402  55.042  0.00  0.00    +0.000 OA
ATOM      3  N   UNL     1      19.685  33.264  54.288  0.00  0.00    +0.000 N 
ATOM      4  H   UNL     1      18.778  33.634  54.551  0.00  0.00    +0.000 HD
ATOM      5  H   UNL     1      19.934  33.194  53.311  0.00  0.00    +0.000 HD
ENDROOT
BRANCH   1   6
ATOM      6  C   UNL     1      20.078  33.014  56.705  0.00  0.00    +0.000 C 
ATOM      7  O   UNL     1      20.527  33.848  57.467  0.00  0.00    +0.000 OA
BRANCH   6   8
ATOM      8  O   UNL     1      19.118  32.113  56.982  0.00  0.00    +0.000 OA
ATOM      9  H   UNL     1      19.448  31.503  57.684  0.00  0.00    +0.000 HD
ENDBRANCH   6   8
ENDBRANCH   1   6
TORSDOF 2
ENDMDL
MODEL 3
REMARK VINA RESULT:    -3.950     10.921     11.266
REMARK INTER + INTRA:          -4.297
REMARK INTER:                  -4.297
REMARK INTRA:                   0.000
REMARK UNBOUND:                 0.000
REMARK  Name = 
REMARK  2 active torsions:
REMARK  status: ('A' for Active; 'I' for Inactive)
REMARK    1  A    between atoms: O_1  and  C_2
REMARK    2  A    between atoms: C_2  and  C_4
REMARK                            x       y       z     vdW  Elec       q    Type
REMARK                         _______ _______ _______ _____ _____    ______ ____
ROOT
ATOM      1  C   UNL     1      14.021  42.611  57.514  0.00  0.00    +0.000 C 
ATOM      2  O   UNL     1      13.464  43.700  57.493  0.00  0.00    +0.000 OA
ATOM      3  N   UNL     1      13.541  41.490  58.127  0.00  0.00    +0.000 N 
ATOM      4  H   UNL     1      14.072  40.625  58.093  0.00  0.00    +0.000 HD
ATOM      5  H   UNL     1      12.658  41.518  58.616  0.00  0.00    +0.000 HD
ENDROOT
BRANCH   1   6
ATOM      6  C   UNL     1      15.378  42.451  56.798  0.00  0.00    +0.000 C 
ATOM      7  O   UNL     1      16.352  41.958  57.334  0.00  0.00    +0.000 OA
BRANCH   6   8
ATOM      8  O   UNL     1      15.312  42.924  55.540  0.00  0.00    +0.000 OA
ATOM      9  H   UNL     1      15.635  43.856  55.534  0.00  0.00    +0.000 HD
ENDBRANCH   6   8
ENDBRANCH   1   6
TORSDOF 2
ENDMDL
MODEL 4
REMARK VINA RESULT:    -3.947     10.200     10.641
REMARK INTER + INTRA:          -4.293
REMARK INTER:                  -4.293
REMARK INTRA:                   0.000
REMARK UNBOUND:                 0.000
REMARK  Name = 
REMARK  2 active torsions:
REMARK  status: ('A' for Active; 'I' for Inactive)
REMARK    1  A    between atoms: O_1  and  C_2
REMARK    2  A    between atoms: C_2  and  C_4
REMARK                            x       y       z     vdW  Elec       q    Type
REMARK                         _______ _______ _______ _____ _____    ______ ____
ROOT
ATOM      1  C   UNL     1      14.850  42.558  56.541  0.00  0.00    +0.000 C 
ATOM      2  O   UNL     1      15.242  43.101  55.518  0.00  0.00    +0.000 OA
ATOM      3  N   UNL     1      13.654  42.797  57.153  0.00  0.00    +0.000 N 
ATOM      4  H   UNL     1      13.408  42.298  58.003  0.00  0.00    +0.000 HD
ATOM      5  H   UNL     1      13.010  43.470  56.763  0.00  0.00    +0.000 HD
ENDROOT
BRANCH   1   6
ATOM      6  C   UNL     1      15.752  41.510  57.225  0.00  0.00    +0.000 C 
ATOM      7  O   UNL     1      16.854  41.775  57.663  0.00  0.00    +0.000 OA
BRANCH   6   8
ATOM      8  O   UNL     1      15.146  40.309  57.257  0.00  0.00    +0.000 OA
ATOM      9  H   UNL     1      14.633  40.190  56.423  0.00  0.00    +0.000 HD
ENDBRANCH   6   8
ENDBRANCH   1   6
TORSDOF 2
ENDMDL
MODEL 5
REMARK VINA RESULT:    -3.922      2.011      2.715
REMARK INTER + INTRA:          -4.266
REMARK INTER:                  -4.266
REMARK INTRA:                   0.000
REMARK UNBOUND:                 0.000
REMARK  Name = 
REMARK  2 active torsions:
REMARK  status: ('A' for Active; 'I' for Inactive)
REMARK    1  A    between atoms: O_1  and  C_2
REMARK    2  A    between atoms: C_2  and  C_4
REMARK                            x       y       z     vdW  Elec       q    Type
REMARK                         _______ _______ _______ _____ _____    ______ ____
ROOT
ATOM      1  C   UNL     1      19.878  33.072  56.563  0.00  0.00    +0.000 C 
ATOM      2  O   UNL     1      19.221  32.051  56.708  0.00  0.00    +0.000 OA
ATOM      3  N   UNL     1      20.992  33.191  55.783  0.00  0.00    +0.000 N 
ATOM      4  H   UNL     1      21.477  34.080  55.720  0.00  0.00    +0.000 HD
ATOM      5  H   UNL     1      21.336  32.394  55.266  0.00  0.00    +0.000 HD
ENDROOT
BRANCH   1   6
ATOM      6  C   UNL     1      19.445  34.353  57.305  0.00  0.00    +0.000 C 
ATOM      7  O   UNL     1      20.162  35.329  57.410  0.00  0.00    +0.000 OA
BRANCH   6   8
ATOM      8  O   UNL     1      18.198  34.221  57.794  0.00  0.00    +0.000 OA
ATOM      9  H   UNL     1      17.787  35.115  57.862  0.00  0.00    +0.000 HD
ENDBRANCH   6   8
ENDBRANCH   1   6
TORSDOF 2
ENDMDL
MODEL 6
REMARK VINA RESULT:    -3.903      1.568      2.040
REMARK INTER + INTRA:          -4.246
REMARK INTER:                  -4.246
REMARK INTRA:                   0.000
REMARK UNBOUND:                 0.000
REMARK  Name = 
REMARK  2 active torsions:
REMARK  status: ('A' for Active; 'I' for Inactive)
REMARK    1  A    between atoms: O_1  and  C_2
REMARK    2  A    between atoms: C_2  and  C_4
REMARK                            x       y       z     vdW  Elec       q    Type
REMARK                         _______ _______ _______ _____ _____    ______ ____
ROOT
ATOM      1  C   UNL     1      19.231  34.413  57.244  0.00  0.00    +0.000 C 
ATOM      2  O   UNL     1      18.164  34.241  57.816  0.00  0.00    +0.000 OA
ATOM      3  N   UNL     1      19.850  35.618  57.072  0.00  0.00    +0.000 N 
ATOM      4  H   UNL     1      20.738  35.668  56.584  0.00  0.00    +0.000 HD
ATOM      5  H   UNL     1      19.425  36.461  57.430  0.00  0.00    +0.000 HD
ENDROOT
BRANCH   1   6
ATOM      6  C   UNL     1      19.971  33.194  56.658  0.00  0.00    +0.000 C 
ATOM      7  O   UNL     1      21.100  33.260  56.212  0.00  0.00    +0.000 OA
BRANCH   6   8
ATOM      8  O   UNL     1      19.199  32.094  56.717  0.00  0.00    +0.000 OA
ATOM      9  H   UNL     1      18.896  31.869  55.806  0.00  0.00    +0.000 HD
ENDBRANCH   6   8
ENDBRANCH   1   6
TORSDOF 2
ENDMDL
MODEL 7
REMARK VINA RESULT:    -3.898      2.087      2.609
REMARK INTER + INTRA:          -4.240
REMARK INTER:                  -4.240
REMARK INTRA:                   0.000
REMARK UNBOUND:                 0.000
REMARK  Name = 
REMARK  2 active torsions:
REMARK  status: ('A' for Active; 'I' for Inactive)
REMARK    1  A    between atoms: O_1  and  C_2
REMARK    2  A    between atoms: C_2  and  C_4
REMARK                            x       y       z     vdW  Elec       q    Type
REMARK                         _______ _______ _______ _____ _____    ______ ____
ROOT
ATOM      1  C   UNL     1      19.831  33.955  54.453  0.00  0.00    +0.000 C 
ATOM      2  O   UNL     1      19.876  35.101  54.877  0.00  0.00    +0.000 OA
ATOM      3  N   UNL     1      19.085  33.535  53.390  0.00  0.00    +0.000 N 
ATOM      4  H   UNL     1      19.108  32.561  53.104  0.00  0.00    +0.000 HD
ATOM      5  H   UNL     1      18.507  34.192  52.885  0.00  0.00    +0.000 HD
ENDROOT
BRANCH   1   6
ATOM      6  C   UNL     1      20.674  32.866  55.147  0.00  0.00    +0.000 C 
ATOM      7  O   UNL     1      21.890  32.889  55.172  0.00  0.00    +0.000 OA
BRANCH   6   8
ATOM      8  O   UNL     1      19.881  31.927  55.695  0.00  0.00    +0.000 OA
ATOM      9  H   UNL     1      20.448  31.242  56.122  0.00  0.00    +0.000 HD
ENDBRANCH   6   8
ENDBRANCH   1   6
TORSDOF 2
ENDMDL
MODEL 8
REMARK VINA RESULT:    -3.862      3.833      4.338
REMARK INTER + INTRA:          -4.201
REMARK INTER:                  -4.201
REMARK INTRA:                   0.000
REMARK UNBOUND:                 0.000
REMARK  Name = 
REMARK  2 active torsions:
REMARK  status: ('A' for Active; 'I' for Inactive)
REMARK    1  A    between atoms: O_1  and  C_2
REMARK    2  A    between atoms: C_2  and  C_4
REMARK                            x       y       z     vdW  Elec       q    Type
REMARK                         _______ _______ _______ _____ _____    ______ ____
ROOT
ATOM      1  C   UNL     1      19.606  35.708  57.875  0.00  0.00    +0.000 C 
ATOM      2  O   UNL     1      20.622  35.468  58.512  0.00  0.00    +0.000 OA
ATOM      3  N   UNL     1      19.556  36.404  56.702  0.00  0.00    +0.000 N 
ATOM      4  H   UNL     1      18.665  36.557  56.239  0.00  0.00    +0.000 HD
ATOM      5  H   UNL     1      20.404  36.769  56.292  0.00  0.00    +0.000 HD
ENDROOT
BRANCH   1   6
ATOM      6  C   UNL     1      18.251  35.199  58.407  0.00  0.00    +0.000 C 
ATOM      7  O   UNL     1      18.086  34.844  59.558  0.00  0.00    +0.000 OA
BRANCH   6   8
ATOM      8  O   UNL     1      17.323  35.210  57.433  0.00  0.00    +0.000 OA
ATOM      9  H   UNL     1      17.650  34.669  56.677  0.00  0.00    +0.000 HD
ENDBRANCH   6   8
ENDBRANCH   1   6
TORSDOF 2
ENDMDL
MODEL 9
REMARK VINA RESULT:    -3.733      3.451      3.869
REMARK INTER + INTRA:          -4.060
REMARK INTER:                  -4.060
REMARK INTRA:                   0.000
REMARK UNBOUND:                 0.000
REMARK  Name = 
REMARK  2 active torsions:
REMARK  status: ('A' for Active; 'I' for Inactive)
REMARK    1  A    between atoms: O_1  and  C_2
REMARK    2  A    between atoms: C_2  and  C_4
REMARK                            x       y       z     vdW  Elec       q    Type
REMARK                         _______ _______ _______ _____ _____    ______ ____
ROOT
ATOM      1  C   UNL     1      18.141  35.271  58.457  0.00  0.00    +0.000 C 
ATOM      2  O   UNL     1      17.661  34.618  59.373  0.00  0.00    +0.000 OA
ATOM      3  N   UNL     1      17.465  36.183  57.698  0.00  0.00    +0.000 N 
ATOM      4  H   UNL     1      17.944  36.681  56.955  0.00  0.00    +0.000 HD
ATOM      5  H   UNL     1      16.487  36.363  57.874  0.00  0.00    +0.000 HD
ENDROOT
BRANCH   1   6
ATOM      6  C   UNL     1      19.629  35.078  58.099  0.00  0.00    +0.000 C 
ATOM      7  O   UNL     1      20.187  33.999  58.160  0.00  0.00    +0.000 OA
BRANCH   6   8
ATOM      8  O   UNL     1      20.184  36.245  57.725  0.00  0.00    +0.000 OA
ATOM      9  H   UNL     1      20.130  36.878  58.479  0.00  0.00    +0.000 HD
ENDBRANCH   6   8
ENDBRANCH   1   6
TORSDOF 2
ENDMDL
