MODEL 1
REMARK VINA RESULT:    -7.288      0.000      0.000
REMARK INTER + INTRA:          -7.871
REMARK INTER:                  -7.714
REMARK INTRA:                  -0.157
REMARK UNBOUND:                -0.157
REMARK SMILES [H]/[N+]=C(\N)Nc1ccc2ccccc2c1
REMARK SMILES IDX 1 1 2 2 3 3 4 4 5 5 6 9 7 10 15 11 8 12 14 13 9 14 13 15
REMARK SMILES IDX 10 16 12 17 11 18
REMARK H PARENT 4 6 4 7 5 8
ROOT
ATOM      1  H   UNL     1      30.210  -1.382   5.010  1.00  0.00     0.309 HD
ATOM      2  N   UNL     1      29.610  -1.037   4.259  1.00  0.00    -0.129 N 
ATOM      3  C   UNL     1      28.630  -0.377   4.771  1.00  0.00     0.379 C 
ATOM      4  N   UNL     1      28.474  -0.278   6.109  1.00  0.00    -0.288 N 
ATOM      5  N   UNL     1      27.694   0.179   3.960  1.00  0.00    -0.243 N 
ATOM      6  H   UNL     1      28.998  -0.943   6.664  1.00  0.00     0.256 HD
ATOM      7  H   UNL     1      27.504  -0.247   6.400  1.00  0.00     0.256 HD
ATOM      8  H   UNL     1      27.830  -0.057   2.984  1.00  0.00     0.267 HD
ENDROOT
BRANCH   5   9
ATOM      9  C   UNL     1      26.578   0.977   4.245  1.00  0.00     0.100 A 
ATOM     10  C   UNL     1      25.292   0.458   4.423  1.00  0.00     0.043 A 
ATOM     11  C   UNL     1      26.727   2.373   4.230  1.00  0.00     0.051 A 
ATOM     12  C   UNL     1      24.180   1.294   4.536  1.00  0.00     0.012 A 
ATOM     13  C   UNL     1      25.621   3.236   4.343  1.00  0.00    -0.015 A 
ATOM     14  C   UNL     1      24.328   2.685   4.484  1.00  0.00    -0.018 A 
ATOM     15  C   UNL     1      25.768   4.631   4.298  1.00  0.00     0.009 A 
ATOM     16  C   UNL     1      23.218   3.538   4.566  1.00  0.00     0.009 A 
ATOM     17  C   UNL     1      24.653   5.468   4.382  1.00  0.00     0.001 A 
ATOM     18  C   UNL     1      23.380   4.922   4.510  1.00  0.00     0.001 A 
ENDBRANCH   5   9
TORSDOF 1
ENDMDL
MODEL 2
REMARK VINA RESULT:    -7.265      2.050      2.240
REMARK INTER + INTRA:          -7.847
REMARK INTER:                  -7.708
REMARK INTRA:                  -0.139
REMARK UNBOUND:                -0.157
REMARK SMILES [H]/[N+]=C(\N)Nc1ccc2ccccc2c1
REMARK SMILES IDX 1 1 2 2 3 3 4 4 5 5 6 9 7 10 15 11 8 12 14 13 9 14 13 15
REMARK SMILES IDX 10 16 12 17 11 18
REMARK H PARENT 4 6 4 7 5 8
ROOT
ATOM      1  H   UNL     1      29.491  -2.755   3.557  1.00  0.00     0.309 HD
ATOM      2  N   UNL     1      29.917  -1.887   3.886  1.00  0.00    -0.129 N 
ATOM      3  C   UNL     1      28.990  -1.027   4.132  1.00  0.00     0.379 C 
ATOM      4  N   UNL     1      27.691  -1.308   3.889  1.00  0.00    -0.288 N 
ATOM      5  N   UNL     1      29.320   0.210   4.581  1.00  0.00    -0.243 N 
ATOM      6  H   UNL     1      27.517  -2.100   3.284  1.00  0.00     0.256 HD
ATOM      7  H   UNL     1      27.153  -0.501   3.597  1.00  0.00     0.256 HD
ATOM      8  H   UNL     1      30.321   0.365   4.610  1.00  0.00     0.267 HD
ENDROOT
BRANCH   5   9
ATOM      9  C   UNL     1      28.525   1.297   4.970  1.00  0.00     0.100 A 
ATOM     10  C   UNL     1      27.909   1.386   6.222  1.00  0.00     0.043 A 
ATOM     11  C   UNL     1      28.227   2.287   4.020  1.00  0.00     0.051 A 
ATOM     12  C   UNL     1      26.991   2.397   6.511  1.00  0.00     0.012 A 
ATOM     13  C   UNL     1      27.306   3.316   4.289  1.00  0.00    -0.015 A 
ATOM     14  C   UNL     1      26.670   3.361   5.549  1.00  0.00    -0.018 A 
ATOM     15  C   UNL     1      26.986   4.288   3.328  1.00  0.00     0.009 A 
ATOM     16  C   UNL     1      25.727   4.365   5.813  1.00  0.00     0.009 A 
ATOM     17  C   UNL     1      26.046   5.283   3.605  1.00  0.00     0.001 A 
ATOM     18  C   UNL     1      25.414   5.318   4.843  1.00  0.00     0.001 A 
ENDBRANCH   5   9
TORSDOF 1
ENDMDL
MODEL 3
REMARK VINA RESULT:    -7.231      0.926      0.974
REMARK INTER + INTRA:          -7.810
REMARK INTER:                  -7.653
REMARK INTRA:                  -0.157
REMARK UNBOUND:                -0.157
REMARK SMILES [H]/[N+]=C(\N)Nc1ccc2ccccc2c1
REMARK SMILES IDX 1 1 2 2 3 3 4 4 5 5 6 9 7 10 15 11 8 12 14 13 9 14 13 15
REMARK SMILES IDX 10 16 12 17 11 18
REMARK H PARENT 4 6 4 7 5 8
ROOT
ATOM      1  H   UNL     1      30.157  -0.865   3.729  1.00  0.00     0.309 HD
ATOM      2  N   UNL     1      29.414  -0.516   3.123  1.00  0.00    -0.129 N 
ATOM      3  C   UNL     1      28.615   0.221   3.815  1.00  0.00     0.379 C 
ATOM      4  N   UNL     1      28.786   0.382   5.146  1.00  0.00    -0.288 N 
ATOM      5  N   UNL     1      27.542   0.798   3.219  1.00  0.00    -0.243 N 
ATOM      6  H   UNL     1      29.394  -0.290   5.596  1.00  0.00     0.256 HD
ATOM      7  H   UNL     1      27.915   0.482   5.654  1.00  0.00     0.256 HD
ATOM      8  H   UNL     1      27.430   0.516   2.252  1.00  0.00     0.267 HD
ENDROOT
BRANCH   5   9
ATOM      9  C   UNL     1      26.564   1.671   3.715  1.00  0.00     0.100 A 
ATOM     10  C   UNL     1      25.327   1.237   4.203  1.00  0.00     0.043 A 
ATOM     11  C   UNL     1      26.779   3.054   3.606  1.00  0.00     0.051 A 
ATOM     12  C   UNL     1      24.316   2.143   4.530  1.00  0.00     0.012 A 
ATOM     13  C   UNL     1      25.776   3.986   3.931  1.00  0.00    -0.015 A 
ATOM     14  C   UNL     1      24.522   3.519   4.386  1.00  0.00    -0.018 A 
ATOM     15  C   UNL     1      25.981   5.367   3.793  1.00  0.00     0.009 A 
ATOM     16  C   UNL     1      23.506   4.441   4.680  1.00  0.00     0.009 A 
ATOM     17  C   UNL     1      24.961   6.273   4.092  1.00  0.00     0.001 A 
ATOM     18  C   UNL     1      23.725   5.811   4.530  1.00  0.00     0.001 A 
ENDBRANCH   5   9
TORSDOF 1
ENDMDL
MODEL 4
REMARK VINA RESULT:    -7.227      0.863      2.088
REMARK INTER + INTRA:          -7.806
REMARK INTER:                  -7.681
REMARK INTRA:                  -0.125
REMARK UNBOUND:                -0.157
REMARK SMILES [H]/[N+]=C(\N)Nc1ccc2ccccc2c1
REMARK SMILES IDX 1 1 2 2 3 3 4 4 5 5 6 9 7 10 15 11 8 12 14 13 9 14 13 15
REMARK SMILES IDX 10 16 12 17 11 18
REMARK H PARENT 4 6 4 7 5 8
ROOT
ATOM      1  H   UNL     1      29.712  -1.223   5.513  1.00  0.00     0.309 HD
ATOM      2  N   UNL     1      29.384  -0.812   4.638  1.00  0.00    -0.129 N 
ATOM      3  C   UNL     1      28.615   0.187   4.901  1.00  0.00     0.379 C 
ATOM      4  N   UNL     1      28.297   0.511   6.174  1.00  0.00    -0.288 N 
ATOM      5  N   UNL     1      28.055   0.894   3.887  1.00  0.00    -0.243 N 
ATOM      6  H   UNL     1      28.476  -0.204   6.868  1.00  0.00     0.256 HD
ATOM      7  H   UNL     1      27.361   0.886   6.271  1.00  0.00     0.256 HD
ATOM      8  H   UNL     1      28.252   0.497   2.975  1.00  0.00     0.267 HD
ENDROOT
BRANCH   5   9
ATOM      9  C   UNL     1      27.240   2.034   3.891  1.00  0.00     0.100 A 
ATOM     10  C   UNL     1      27.746   3.337   3.869  1.00  0.00     0.043 A 
ATOM     11  C   UNL     1      25.854   1.870   4.049  1.00  0.00     0.051 A 
ATOM     12  C   UNL     1      26.914   4.444   4.045  1.00  0.00     0.012 A 
ATOM     13  C   UNL     1      24.996   2.970   4.227  1.00  0.00    -0.015 A 
ATOM     14  C   UNL     1      25.538   4.274   4.238  1.00  0.00    -0.018 A 
ATOM     15  C   UNL     1      23.615   2.804   4.415  1.00  0.00     0.009 A 
ATOM     16  C   UNL     1      24.693   5.374   4.447  1.00  0.00     0.009 A 
ATOM     17  C   UNL     1      22.785   3.908   4.620  1.00  0.00     0.001 A 
ATOM     18  C   UNL     1      23.324   5.190   4.641  1.00  0.00     0.001 A 
ENDBRANCH   5   9
TORSDOF 1
ENDMDL
MODEL 5
REMARK VINA RESULT:    -7.222      1.369      2.250
REMARK INTER + INTRA:          -7.801
REMARK INTER:                  -7.856
REMARK INTRA:                   0.055
REMARK UNBOUND:                -0.157
REMARK SMILES [H]/[N+]=C(\N)Nc1ccc2ccccc2c1
REMARK SMILES IDX 1 1 2 2 3 3 4 4 5 5 6 9 7 10 15 11 8 12 14 13 9 14 13 15
REMARK SMILES IDX 10 16 12 17 11 18
REMARK H PARENT 4 6 4 7 5 8
ROOT
ATOM      1  H   UNL     1      27.166  -2.655   5.840  1.00  0.00     0.309 HD
ATOM      2  N   UNL     1      26.398  -2.236   5.315  1.00  0.00    -0.129 N 
ATOM      3  C   UNL     1      26.618  -0.974   5.178  1.00  0.00     0.379 C 
ATOM      4  N   UNL     1      27.693  -0.384   5.744  1.00  0.00    -0.288 N 
ATOM      5  N   UNL     1      25.724  -0.202   4.510  1.00  0.00    -0.243 N 
ATOM      6  H   UNL     1      28.156  -0.916   6.470  1.00  0.00     0.256 HD
ATOM      7  H   UNL     1      27.519   0.567   6.045  1.00  0.00     0.256 HD
ATOM      8  H   UNL     1      24.892  -0.711   4.234  1.00  0.00     0.267 HD
ENDROOT
BRANCH   5   9
ATOM      9  C   UNL     1      25.742   1.160   4.176  1.00  0.00     0.100 A 
ATOM     10  C   UNL     1      26.810   1.770   3.512  1.00  0.00     0.043 A 
ATOM     11  C   UNL     1      24.699   1.979   4.636  1.00  0.00     0.051 A 
ATOM     12  C   UNL     1      26.868   3.155   3.347  1.00  0.00     0.012 A 
ATOM     13  C   UNL     1      24.735   3.377   4.481  1.00  0.00    -0.015 A 
ATOM     14  C   UNL     1      25.844   3.972   3.839  1.00  0.00    -0.018 A 
ATOM     15  C   UNL     1      23.706   4.199   4.967  1.00  0.00     0.009 A 
ATOM     16  C   UNL     1      25.902   5.367   3.709  1.00  0.00     0.009 A 
ATOM     17  C   UNL     1      23.777   5.587   4.829  1.00  0.00     0.001 A 
ATOM     18  C   UNL     1      24.875   6.170   4.206  1.00  0.00     0.001 A 
ENDBRANCH   5   9
TORSDOF 1
ENDMDL
MODEL 6
REMARK VINA RESULT:    -7.214      1.193      2.424
REMARK INTER + INTRA:          -7.792
REMARK INTER:                  -7.650
REMARK INTRA:                  -0.143
REMARK UNBOUND:                -0.157
REMARK SMILES [H]/[N+]=C(\N)Nc1ccc2ccccc2c1
REMARK SMILES IDX 1 1 2 2 3 3 4 4 5 5 6 9 7 10 15 11 8 12 14 13 9 14 13 15
REMARK SMILES IDX 10 16 12 17 11 18
REMARK H PARENT 4 6 4 7 5 8
ROOT
ATOM      1  H   UNL     1      30.212  -1.002   4.671  1.00  0.00     0.309 HD
ATOM      2  N   UNL     1      29.656  -0.522   5.380  1.00  0.00    -0.129 N 
ATOM      3  C   UNL     1      29.042   0.470   4.836  1.00  0.00     0.379 C 
ATOM      4  N   UNL     1      29.229   0.783   3.535  1.00  0.00    -0.288 N 
ATOM      5  N   UNL     1      28.238   1.263   5.590  1.00  0.00    -0.243 N 
ATOM      6  H   UNL     1      30.045   0.374   3.097  1.00  0.00     0.256 HD
ATOM      7  H   UNL     1      29.176   1.778   3.349  1.00  0.00     0.256 HD
ATOM      8  H   UNL     1      28.263   1.023   6.575  1.00  0.00     0.267 HD
ENDROOT
BRANCH   5   9
ATOM      9  C   UNL     1      27.427   2.353   5.248  1.00  0.00     0.100 A 
ATOM     10  C   UNL     1      27.898   3.669   5.190  1.00  0.00     0.043 A 
ATOM     11  C   UNL     1      26.050   2.140   5.075  1.00  0.00     0.051 A 
ATOM     12  C   UNL     1      27.027   4.745   5.013  1.00  0.00     0.012 A 
ATOM     13  C   UNL     1      25.153   3.209   4.894  1.00  0.00    -0.015 A 
ATOM     14  C   UNL     1      25.651   4.531   4.877  1.00  0.00    -0.018 A 
ATOM     15  C   UNL     1      23.773   2.997   4.751  1.00  0.00     0.009 A 
ATOM     16  C   UNL     1      24.759   5.604   4.729  1.00  0.00     0.009 A 
ATOM     17  C   UNL     1      22.898   4.075   4.603  1.00  0.00     0.001 A 
ATOM     18  C   UNL     1      23.389   5.376   4.597  1.00  0.00     0.001 A 
ENDBRANCH   5   9
TORSDOF 1
ENDMDL
MODEL 7
REMARK VINA RESULT:    -7.169      1.536      2.084
REMARK INTER + INTRA:          -7.745
REMARK INTER:                  -7.675
REMARK INTRA:                  -0.070
REMARK UNBOUND:                -0.157
REMARK SMILES [H]/[N+]=C(\N)Nc1ccc2ccccc2c1
REMARK SMILES IDX 1 1 2 2 3 3 4 4 5 5 6 9 7 10 15 11 8 12 14 13 9 14 13 15
REMARK SMILES IDX 10 16 12 17 11 18
REMARK H PARENT 4 6 4 7 5 8
ROOT
ATOM      1  H   UNL     1      30.421  -0.491   4.767  1.00  0.00     0.309 HD
ATOM      2  N   UNL     1      29.675  -0.294   5.435  1.00  0.00    -0.129 N 
ATOM      3  C   UNL     1      29.002   0.726   5.027  1.00  0.00     0.379 C 
ATOM      4  N   UNL     1      29.357   1.401   3.913  1.00  0.00    -0.288 N 
ATOM      5  N   UNL     1      27.952   1.178   5.759  1.00  0.00    -0.243 N 
ATOM      6  H   UNL     1      30.296   1.230   3.575  1.00  0.00     0.256 HD
ATOM      7  H   UNL     1      29.165   2.394   3.966  1.00  0.00     0.256 HD
ATOM      8  H   UNL     1      27.844   0.685   6.638  1.00  0.00     0.267 HD
ENDROOT
BRANCH   5   9
ATOM      9  C   UNL     1      27.035   2.212   5.525  1.00  0.00     0.100 A 
ATOM     10  C   UNL     1      25.766   2.001   4.978  1.00  0.00     0.043 A 
ATOM     11  C   UNL     1      27.450   3.538   5.730  1.00  0.00     0.051 A 
ATOM     12  C   UNL     1      24.949   3.069   4.603  1.00  0.00     0.012 A 
ATOM     13  C   UNL     1      26.644   4.630   5.360  1.00  0.00    -0.015 A 
ATOM     14  C   UNL     1      25.381   4.388   4.776  1.00  0.00    -0.018 A 
ATOM     15  C   UNL     1      27.071   5.955   5.538  1.00  0.00     0.009 A 
ATOM     16  C   UNL     1      24.585   5.471   4.375  1.00  0.00     0.009 A 
ATOM     17  C   UNL     1      26.267   7.024   5.136  1.00  0.00     0.001 A 
ATOM     18  C   UNL     1      25.029   6.782   4.551  1.00  0.00     0.001 A 
ENDBRANCH   5   9
TORSDOF 1
ENDMDL
MODEL 8
REMARK VINA RESULT:    -6.956      1.687      2.572
REMARK INTER + INTRA:          -7.519
REMARK INTER:                  -7.393
REMARK INTRA:                  -0.126
REMARK UNBOUND:                -0.157
REMARK SMILES [H]/[N+]=C(\N)Nc1ccc2ccccc2c1
REMARK SMILES IDX 1 1 2 2 3 3 4 4 5 5 6 9 7 10 15 11 8 12 14 13 9 14 13 15
REMARK SMILES IDX 10 16 12 17 11 18
REMARK H PARENT 4 6 4 7 5 8
ROOT
ATOM      1  H   UNL     1      26.757  -1.538   3.270  1.00  0.00     0.309 HD
ATOM      2  N   UNL     1      26.390  -1.138   4.136  1.00  0.00    -0.129 N 
ATOM      3  C   UNL     1      26.102   0.102   3.940  1.00  0.00     0.379 C 
ATOM      4  N   UNL     1      26.354   0.702   2.757  1.00  0.00    -0.288 N 
ATOM      5  N   UNL     1      25.596   0.845   4.957  1.00  0.00    -0.243 N 
ATOM      6  H   UNL     1      26.995   0.215   2.143  1.00  0.00     0.256 HD
ATOM      7  H   UNL     1      26.607   1.679   2.847  1.00  0.00     0.256 HD
ATOM      8  H   UNL     1      25.563   0.340   5.835  1.00  0.00     0.267 HD
ENDROOT
BRANCH   5   9
ATOM      9  C   UNL     1      25.155   2.175   5.002  1.00  0.00     0.100 A 
ATOM     10  C   UNL     1      23.842   2.556   4.711  1.00  0.00     0.043 A 
ATOM     11  C   UNL     1      26.099   3.189   5.229  1.00  0.00     0.051 A 
ATOM     12  C   UNL     1      23.482   3.900   4.601  1.00  0.00     0.012 A 
ATOM     13  C   UNL     1      25.759   4.551   5.125  1.00  0.00    -0.015 A 
ATOM     14  C   UNL     1      24.434   4.908   4.793  1.00  0.00    -0.018 A 
ATOM     15  C   UNL     1      26.710   5.564   5.323  1.00  0.00     0.009 A 
ATOM     16  C   UNL     1      24.096   6.262   4.656  1.00  0.00     0.009 A 
ATOM     17  C   UNL     1      26.359   6.909   5.185  1.00  0.00     0.001 A 
ATOM     18  C   UNL     1      25.055   7.257   4.847  1.00  0.00     0.001 A 
ENDBRANCH   5   9
TORSDOF 1
ENDMDL
MODEL 9
REMARK VINA RESULT:    -6.934      2.125      2.617
REMARK INTER + INTRA:          -7.497
REMARK INTER:                  -7.383
REMARK INTRA:                  -0.114
REMARK UNBOUND:                -0.157
REMARK SMILES [H]/[N+]=C(\N)Nc1ccc2ccccc2c1
REMARK SMILES IDX 1 1 2 2 3 3 4 4 5 5 6 9 7 10 15 11 8 12 14 13 9 14 13 15
REMARK SMILES IDX 10 16 12 17 11 18
REMARK H PARENT 4 6 4 7 5 8
ROOT
ATOM      1  H   UNL     1      27.147  -3.624   4.761  1.00  0.00     0.309 HD
ATOM      2  N   UNL     1      26.401  -2.968   4.997  1.00  0.00    -0.129 N 
ATOM      3  C   UNL     1      26.729  -1.790   4.594  1.00  0.00     0.379 C 
ATOM      4  N   UNL     1      27.930  -1.554   4.022  1.00  0.00    -0.288 N 
ATOM      5  N   UNL     1      25.886  -0.747   4.800  1.00  0.00    -0.243 N 
ATOM      6  H   UNL     1      28.632  -2.269   4.162  1.00  0.00     0.256 HD
ATOM      7  H   UNL     1      28.301  -0.634   4.231  1.00  0.00     0.256 HD
ATOM      8  H   UNL     1      25.071  -1.002   5.346  1.00  0.00     0.267 HD
ENDROOT
BRANCH   5   9
ATOM      9  C   UNL     1      25.969   0.601   4.424  1.00  0.00     0.100 A 
ATOM     10  C   UNL     1      25.800   1.039   3.107  1.00  0.00     0.043 A 
ATOM     11  C   UNL     1      26.362   1.545   5.385  1.00  0.00     0.051 A 
ATOM     12  C   UNL     1      26.057   2.362   2.742  1.00  0.00     0.012 A 
ATOM     13  C   UNL     1      26.625   2.884   5.042  1.00  0.00    -0.015 A 
ATOM     14  C   UNL     1      26.483   3.292   3.697  1.00  0.00    -0.018 A 
ATOM     15  C   UNL     1      27.047   3.821   5.998  1.00  0.00     0.009 A 
ATOM     16  C   UNL     1      26.775   4.617   3.341  1.00  0.00     0.009 A 
ATOM     17  C   UNL     1      27.332   5.138   5.630  1.00  0.00     0.001 A 
ATOM     18  C   UNL     1      27.202   5.533   4.303  1.00  0.00     0.001 A 
ENDBRANCH   5   9
TORSDOF 1
ENDMDL
MODEL 10
REMARK VINA RESULT:    -6.917      4.161      5.970
REMARK INTER + INTRA:          -7.478
REMARK INTER:                  -7.357
REMARK INTRA:                  -0.121
REMARK UNBOUND:                -0.157
REMARK SMILES [H]/[N+]=C(\N)Nc1ccc2ccccc2c1
REMARK SMILES IDX 1 1 2 2 3 3 4 4 5 5 6 9 7 10 15 11 8 12 14 13 9 14 13 15
REMARK SMILES IDX 10 16 12 17 11 18
REMARK H PARENT 4 6 4 7 5 8
ROOT
ATOM      1  H   UNL     1      23.515   8.529   5.709  1.00  0.00     0.309 HD
ATOM      2  N   UNL     1      24.519   8.356   5.765  1.00  0.00    -0.129 N 
ATOM      3  C   UNL     1      24.767   7.164   5.345  1.00  0.00     0.379 C 
ATOM      4  N   UNL     1      23.770   6.328   4.978  1.00  0.00    -0.288 N 
ATOM      5  N   UNL     1      26.044   6.705   5.328  1.00  0.00    -0.243 N 
ATOM      6  H   UNL     1      22.842   6.588   5.287  1.00  0.00     0.256 HD
ATOM      7  H   UNL     1      23.964   5.356   5.185  1.00  0.00     0.256 HD
ATOM      8  H   UNL     1      26.702   7.358   5.739  1.00  0.00     0.267 HD
ENDROOT
BRANCH   5   9
ATOM      9  C   UNL     1      26.588   5.494   4.881  1.00  0.00     0.100 A 
ATOM     10  C   UNL     1      26.734   5.174   3.527  1.00  0.00     0.043 A 
ATOM     11  C   UNL     1      26.889   4.500   5.827  1.00  0.00     0.051 A 
ATOM     12  C   UNL     1      27.121   3.896   3.120  1.00  0.00     0.012 A 
ATOM     13  C   UNL     1      27.281   3.206   5.440  1.00  0.00    -0.015 A 
ATOM     14  C   UNL     1      27.385   2.899   4.065  1.00  0.00    -0.018 A 
ATOM     15  C   UNL     1      27.552   2.205   6.385  1.00  0.00     0.009 A 
ATOM     16  C   UNL     1      27.744   1.601   3.671  1.00  0.00     0.009 A 
ATOM     17  C   UNL     1      27.911   0.918   5.979  1.00  0.00     0.001 A 
ATOM     18  C   UNL     1      28.001   0.615   4.624  1.00  0.00     0.001 A 
ENDBRANCH   5   9
TORSDOF 1
ENDMDL
MODEL 11
REMARK VINA RESULT:    -6.880      3.867      5.580
REMARK INTER + INTRA:          -7.439
REMARK INTER:                  -7.967
REMARK INTRA:                   0.528
REMARK UNBOUND:                -0.157
REMARK SMILES [H]/[N+]=C(\N)Nc1ccc2ccccc2c1
REMARK SMILES IDX 1 1 2 2 3 3 4 4 5 5 6 9 7 10 15 11 8 12 14 13 9 14 13 15
REMARK SMILES IDX 10 16 12 17 11 18
REMARK H PARENT 4 6 4 7 5 8
ROOT
ATOM      1  H   UNL     1      25.344   9.222   6.041  1.00  0.00     0.309 HD
ATOM      2  N   UNL     1      24.510   8.706   5.757  1.00  0.00    -0.129 N 
ATOM      3  C   UNL     1      24.848   7.513   5.410  1.00  0.00     0.379 C 
ATOM      4  N   UNL     1      26.143   7.128   5.393  1.00  0.00    -0.288 N 
ATOM      5  N   UNL     1      23.900   6.638   4.990  1.00  0.00    -0.243 N 
ATOM      6  H   UNL     1      26.825   7.876   5.414  1.00  0.00     0.256 HD
ATOM      7  H   UNL     1      26.355   6.462   4.660  1.00  0.00     0.256 HD
ATOM      8  H   UNL     1      22.981   7.058   4.918  1.00  0.00     0.267 HD
ENDROOT
BRANCH   5   9
ATOM      9  C   UNL     1      23.984   5.290   4.614  1.00  0.00     0.100 A 
ATOM     10  C   UNL     1      22.952   4.371   4.825  1.00  0.00     0.043 A 
ATOM     11  C   UNL     1      25.203   4.806   4.114  1.00  0.00     0.051 A 
ATOM     12  C   UNL     1      23.135   3.007   4.593  1.00  0.00     0.012 A 
ATOM     13  C   UNL     1      25.411   3.436   3.872  1.00  0.00    -0.015 A 
ATOM     14  C   UNL     1      24.363   2.523   4.129  1.00  0.00    -0.018 A 
ATOM     15  C   UNL     1      26.640   2.948   3.401  1.00  0.00     0.009 A 
ATOM     16  C   UNL     1      24.573   1.152   3.920  1.00  0.00     0.009 A 
ATOM     17  C   UNL     1      26.834   1.580   3.196  1.00  0.00     0.001 A 
ATOM     18  C   UNL     1      25.804   0.684   3.460  1.00  0.00     0.001 A 
ENDBRANCH   5   9
TORSDOF 1
ENDMDL
MODEL 12
REMARK VINA RESULT:    -6.794      2.970      5.618
REMARK INTER + INTRA:          -7.347
REMARK INTER:                  -7.215
REMARK INTRA:                  -0.132
REMARK UNBOUND:                -0.157
REMARK SMILES [H]/[N+]=C(\N)Nc1ccc2ccccc2c1
REMARK SMILES IDX 1 1 2 2 3 3 4 4 5 5 6 9 7 10 15 11 8 12 14 13 9 14 13 15
REMARK SMILES IDX 10 16 12 17 11 18
REMARK H PARENT 4 6 4 7 5 8
ROOT
ATOM      1  H   UNL     1      23.559   5.785   5.966  1.00  0.00     0.309 HD
ATOM      2  N   UNL     1      23.339   4.987   5.368  1.00  0.00    -0.129 N 
ATOM      3  C   UNL     1      24.397   4.269   5.215  1.00  0.00     0.379 C 
ATOM      4  N   UNL     1      25.581   4.642   5.747  1.00  0.00    -0.288 N 
ATOM      5  N   UNL     1      24.347   3.147   4.452  1.00  0.00    -0.243 N 
ATOM      6  H   UNL     1      25.648   5.609   6.038  1.00  0.00     0.256 HD
ATOM      7  H   UNL     1      26.378   4.376   5.181  1.00  0.00     0.256 HD
ATOM      8  H   UNL     1      23.451   3.022   3.995  1.00  0.00     0.267 HD
ENDROOT
BRANCH   5   9
ATOM      9  C   UNL     1      25.316   2.175   4.168  1.00  0.00     0.100 A 
ATOM     10  C   UNL     1      26.272   2.320   3.159  1.00  0.00     0.043 A 
ATOM     11  C   UNL     1      25.252   0.944   4.841  1.00  0.00     0.051 A 
ATOM     12  C   UNL     1      27.110   1.265   2.794  1.00  0.00     0.012 A 
ATOM     13  C   UNL     1      26.086  -0.133   4.492  1.00  0.00    -0.015 A 
ATOM     14  C   UNL     1      27.019   0.028   3.443  1.00  0.00    -0.018 A 
ATOM     15  C   UNL     1      26.002  -1.373   5.145  1.00  0.00     0.009 A 
ATOM     16  C   UNL     1      27.832  -1.051   3.068  1.00  0.00     0.009 A 
ATOM     17  C   UNL     1      26.819  -2.438   4.762  1.00  0.00     0.001 A 
ATOM     18  C   UNL     1      27.728  -2.279   3.722  1.00  0.00     0.001 A 
ENDBRANCH   5   9
TORSDOF 1
ENDMDL
MODEL 13
REMARK VINA RESULT:    -6.755      3.313      5.532
REMARK INTER + INTRA:          -7.307
REMARK INTER:                  -7.188
REMARK INTRA:                  -0.119
REMARK UNBOUND:                -0.157
REMARK SMILES [H]/[N+]=C(\N)Nc1ccc2ccccc2c1
REMARK SMILES IDX 1 1 2 2 3 3 4 4 5 5 6 9 7 10 15 11 8 12 14 13 9 14 13 15
REMARK SMILES IDX 10 16 12 17 11 18
REMARK H PARENT 4 6 4 7 5 8
ROOT
ATOM      1  H   UNL     1      22.780   6.698   5.155  1.00  0.00     0.309 HD
ATOM      2  N   UNL     1      23.790   6.667   5.008  1.00  0.00    -0.129 N 
ATOM      3  C   UNL     1      24.157   5.443   4.851  1.00  0.00     0.379 C 
ATOM      4  N   UNL     1      23.273   4.427   4.955  1.00  0.00    -0.288 N 
ATOM      5  N   UNL     1      25.466   5.153   4.641  1.00  0.00    -0.243 N 
ATOM      6  H   UNL     1      22.394   4.652   5.405  1.00  0.00     0.256 HD
ATOM      7  H   UNL     1      23.675   3.582   5.345  1.00  0.00     0.256 HD
ATOM      8  H   UNL     1      26.065   5.968   4.706  1.00  0.00     0.267 HD
ENDROOT
BRANCH   5   9
ATOM      9  C   UNL     1      26.117   3.937   4.391  1.00  0.00     0.100 A 
ATOM     10  C   UNL     1      26.043   3.267   3.166  1.00  0.00     0.043 A 
ATOM     11  C   UNL     1      26.775   3.295   5.453  1.00  0.00     0.051 A 
ATOM     12  C   UNL     1      26.562   1.981   3.009  1.00  0.00     0.012 A 
ATOM     13  C   UNL     1      27.307   1.999   5.317  1.00  0.00    -0.015 A 
ATOM     14  C   UNL     1      27.185   1.330   4.079  1.00  0.00    -0.018 A 
ATOM     15  C   UNL     1      27.937   1.346   6.387  1.00  0.00     0.009 A 
ATOM     16  C   UNL     1      27.684   0.026   3.946  1.00  0.00     0.009 A 
ATOM     17  C   UNL     1      28.432   0.048   6.239  1.00  0.00     0.001 A 
ATOM     18  C   UNL     1      28.300  -0.612   5.023  1.00  0.00     0.001 A 
ENDBRANCH   5   9
TORSDOF 1
ENDMDL
MODEL 14
REMARK VINA RESULT:    -6.747      3.283      5.603
REMARK INTER + INTRA:          -7.298
REMARK INTER:                  -7.190
REMARK INTRA:                  -0.108
REMARK UNBOUND:                -0.157
REMARK SMILES [H]/[N+]=C(\N)Nc1ccc2ccccc2c1
REMARK SMILES IDX 1 1 2 2 3 3 4 4 5 5 6 9 7 10 15 11 8 12 14 13 9 14 13 15
REMARK SMILES IDX 10 16 12 17 11 18
REMARK H PARENT 4 6 4 7 5 8
ROOT
ATOM      1  H   UNL     1      22.864   6.800   4.988  1.00  0.00     0.309 HD
ATOM      2  N   UNL     1      23.872   6.720   4.848  1.00  0.00    -0.129 N 
ATOM      3  C   UNL     1      24.231   5.499   5.042  1.00  0.00     0.379 C 
ATOM      4  N   UNL     1      23.342   4.562   5.439  1.00  0.00    -0.288 N 
ATOM      5  N   UNL     1      25.536   5.150   4.913  1.00  0.00    -0.243 N 
ATOM      6  H   UNL     1      22.470   4.912   5.813  1.00  0.00     0.256 HD
ATOM      7  H   UNL     1      23.743   3.859   6.049  1.00  0.00     0.256 HD
ATOM      8  H   UNL     1      26.140   5.945   4.738  1.00  0.00     0.267 HD
ENDROOT
BRANCH   5   9
ATOM      9  C   UNL     1      26.178   3.908   5.013  1.00  0.00     0.100 A 
ATOM     10  C   UNL     1      27.023   3.567   6.073  1.00  0.00     0.043 A 
ATOM     11  C   UNL     1      26.069   3.006   3.942  1.00  0.00     0.051 A 
ATOM     12  C   UNL     1      27.775   2.391   6.054  1.00  0.00     0.012 A 
ATOM     13  C   UNL     1      26.816   1.814   3.902  1.00  0.00    -0.015 A 
ATOM     14  C   UNL     1      27.691   1.512   4.968  1.00  0.00    -0.018 A 
ATOM     15  C   UNL     1      26.730   0.927   2.817  1.00  0.00     0.009 A 
ATOM     16  C   UNL     1      28.463   0.342   4.919  1.00  0.00     0.009 A 
ATOM     17  C   UNL     1      27.503  -0.235   2.783  1.00  0.00     0.001 A 
ATOM     18  C   UNL     1      28.372  -0.525   3.830  1.00  0.00     0.001 A 
ENDBRANCH   5   9
TORSDOF 1
ENDMDL
MODEL 15
REMARK VINA RESULT:    -6.733      3.966      5.846
REMARK INTER + INTRA:          -7.283
REMARK INTER:                  -7.362
REMARK INTRA:                   0.079
REMARK UNBOUND:                -0.157
REMARK SMILES [H]/[N+]=C(\N)Nc1ccc2ccccc2c1
REMARK SMILES IDX 1 1 2 2 3 3 4 4 5 5 6 9 7 10 15 11 8 12 14 13 9 14 13 15
REMARK SMILES IDX 10 16 12 17 11 18
REMARK H PARENT 4 6 4 7 5 8
ROOT
ATOM      1  H   UNL     1      23.779   9.171   5.821  1.00  0.00     0.309 HD
ATOM      2  N   UNL     1      24.653   8.684   6.022  1.00  0.00    -0.129 N 
ATOM      3  C   UNL     1      24.655   7.549   5.412  1.00  0.00     0.379 C 
ATOM      4  N   UNL     1      23.584   7.134   4.701  1.00  0.00    -0.288 N 
ATOM      5  N   UNL     1      25.722   6.719   5.533  1.00  0.00    -0.243 N 
ATOM      6  H   UNL     1      22.717   7.625   4.883  1.00  0.00     0.256 HD
ATOM      7  H   UNL     1      23.446   6.131   4.730  1.00  0.00     0.256 HD
ATOM      8  H   UNL     1      26.416   7.064   6.186  1.00  0.00     0.267 HD
ENDROOT
BRANCH   5   9
ATOM      9  C   UNL     1      26.001   5.477   4.947  1.00  0.00     0.100 A 
ATOM     10  C   UNL     1      27.014   5.287   4.003  1.00  0.00     0.043 A 
ATOM     11  C   UNL     1      25.148   4.396   5.222  1.00  0.00     0.051 A 
ATOM     12  C   UNL     1      27.152   4.078   3.318  1.00  0.00     0.012 A 
ATOM     13  C   UNL     1      25.268   3.169   4.546  1.00  0.00    -0.015 A 
ATOM     14  C   UNL     1      26.278   3.015   3.570  1.00  0.00    -0.018 A 
ATOM     15  C   UNL     1      24.397   2.098   4.800  1.00  0.00     0.009 A 
ATOM     16  C   UNL     1      26.384   1.806   2.867  1.00  0.00     0.009 A 
ATOM     17  C   UNL     1      24.515   0.899   4.095  1.00  0.00     0.001 A 
ATOM     18  C   UNL     1      25.503   0.755   3.127  1.00  0.00     0.001 A 
ENDBRANCH   5   9
TORSDOF 1
ENDMDL
MODEL 16
REMARK VINA RESULT:    -6.665      1.637      2.893
REMARK INTER + INTRA:          -7.211
REMARK INTER:                  -7.066
REMARK INTRA:                  -0.145
REMARK UNBOUND:                -0.157
REMARK SMILES [H]/[N+]=C(\N)Nc1ccc2ccccc2c1
REMARK SMILES IDX 1 1 2 2 3 3 4 4 5 5 6 9 7 10 15 11 8 12 14 13 9 14 13 15
REMARK SMILES IDX 10 16 12 17 11 18
REMARK H PARENT 4 6 4 7 5 8
ROOT
ATOM      1  H   UNL     1      26.626  -1.949   3.596  1.00  0.00     0.309 HD
ATOM      2  N   UNL     1      26.439  -1.347   4.399  1.00  0.00    -0.129 N 
ATOM      3  C   UNL     1      26.640  -0.120   4.065  1.00  0.00     0.379 C 
ATOM      4  N   UNL     1      27.096   0.206   2.836  1.00  0.00    -0.288 N 
ATOM      5  N   UNL     1      26.454   0.867   4.978  1.00  0.00    -0.243 N 
ATOM      6  H   UNL     1      27.505  -0.551   2.303  1.00  0.00     0.256 HD
ATOM      7  H   UNL     1      27.700   1.020   2.834  1.00  0.00     0.256 HD
ATOM      8  H   UNL     1      26.235   0.513   5.902  1.00  0.00     0.267 HD
ENDROOT
BRANCH   5   9
ATOM      9  C   UNL     1      26.548   2.261   4.867  1.00  0.00     0.100 A 
ATOM     10  C   UNL     1      27.744   2.964   5.043  1.00  0.00     0.043 A 
ATOM     11  C   UNL     1      25.369   3.003   4.694  1.00  0.00     0.051 A 
ATOM     12  C   UNL     1      27.767   4.359   5.093  1.00  0.00     0.012 A 
ATOM     13  C   UNL     1      25.367   4.410   4.739  1.00  0.00    -0.015 A 
ATOM     14  C   UNL     1      26.584   5.094   4.956  1.00  0.00    -0.018 A 
ATOM     15  C   UNL     1      24.184   5.150   4.596  1.00  0.00     0.009 A 
ATOM     16  C   UNL     1      26.585   6.494   5.034  1.00  0.00     0.009 A 
ATOM     17  C   UNL     1      24.201   6.545   4.674  1.00  0.00     0.001 A 
ATOM     18  C   UNL     1      25.398   7.215   4.898  1.00  0.00     0.001 A 
ENDBRANCH   5   9
TORSDOF 1
ENDMDL
MODEL 17
REMARK VINA RESULT:    -6.551      3.218      5.350
REMARK INTER + INTRA:          -7.091
REMARK INTER:                  -7.023
REMARK INTRA:                  -0.067
REMARK UNBOUND:                -0.157
REMARK SMILES [H]/[N+]=C(\N)Nc1ccc2ccccc2c1
REMARK SMILES IDX 1 1 2 2 3 3 4 4 5 5 6 9 7 10 15 11 8 12 14 13 9 14 13 15
REMARK SMILES IDX 10 16 12 17 11 18
REMARK H PARENT 4 6 4 7 5 8
ROOT
ATOM      1  H   UNL     1      26.230   7.176   6.038  1.00  0.00     0.309 HD
ATOM      2  N   UNL     1      26.875   6.812   5.336  1.00  0.00    -0.129 N 
ATOM      3  C   UNL     1      26.624   5.564   5.138  1.00  0.00     0.379 C 
ATOM      4  N   UNL     1      25.679   4.917   5.854  1.00  0.00    -0.288 N 
ATOM      5  N   UNL     1      27.362   4.862   4.241  1.00  0.00    -0.243 N 
ATOM      6  H   UNL     1      25.374   5.380   6.701  1.00  0.00     0.256 HD
ATOM      7  H   UNL     1      25.904   3.945   6.031  1.00  0.00     0.256 HD
ATOM      8  H   UNL     1      28.124   5.402   3.850  1.00  0.00     0.267 HD
ENDROOT
BRANCH   5   9
ATOM      9  C   UNL     1      27.268   3.534   3.801  1.00  0.00     0.100 A 
ATOM     10  C   UNL     1      26.180   3.044   3.072  1.00  0.00     0.043 A 
ATOM     11  C   UNL     1      28.248   2.618   4.215  1.00  0.00     0.051 A 
ATOM     12  C   UNL     1      26.042   1.682   2.799  1.00  0.00     0.012 A 
ATOM     13  C   UNL     1      28.131   1.241   3.951  1.00  0.00    -0.015 A 
ATOM     14  C   UNL     1      27.003   0.768   3.244  1.00  0.00    -0.018 A 
ATOM     15  C   UNL     1      29.095   0.321   4.390  1.00  0.00     0.009 A 
ATOM     16  C   UNL     1      26.863  -0.607   3.005  1.00  0.00     0.009 A 
ATOM     17  C   UNL     1      28.944  -1.045   4.143  1.00  0.00     0.001 A 
ATOM     18  C   UNL     1      27.827  -1.509   3.457  1.00  0.00     0.001 A 
ENDBRANCH   5   9
TORSDOF 1
ENDMDL
MODEL 18
REMARK VINA RESULT:    -6.497      2.859      5.132
REMARK INTER + INTRA:          -7.033
REMARK INTER:                  -6.926
REMARK INTRA:                  -0.107
REMARK UNBOUND:                -0.157
REMARK SMILES [H]/[N+]=C(\N)Nc1ccc2ccccc2c1
REMARK SMILES IDX 1 1 2 2 3 3 4 4 5 5 6 9 7 10 15 11 8 12 14 13 9 14 13 15
REMARK SMILES IDX 10 16 12 17 11 18
REMARK H PARENT 4 6 4 7 5 8
ROOT
ATOM      1  H   UNL     1      26.320   7.025   5.241  1.00  0.00     0.309 HD
ATOM      2  N   UNL     1      25.898   6.455   4.507  1.00  0.00    -0.129 N 
ATOM      3  C   UNL     1      26.151   5.214   4.737  1.00  0.00     0.379 C 
ATOM      4  N   UNL     1      26.926   4.836   5.777  1.00  0.00    -0.288 N 
ATOM      5  N   UNL     1      25.690   4.262   3.886  1.00  0.00    -0.243 N 
ATOM      6  H   UNL     1      27.489   5.567   6.194  1.00  0.00     0.256 HD
ATOM      7  H   UNL     1      27.483   4.012   5.586  1.00  0.00     0.256 HD
ATOM      8  H   UNL     1      25.229   4.652   3.072  1.00  0.00     0.267 HD
ENDROOT
BRANCH   5   9
ATOM      9  C   UNL     1      25.772   2.863   3.927  1.00  0.00     0.100 A 
ATOM     10  C   UNL     1      24.792   2.056   4.511  1.00  0.00     0.043 A 
ATOM     11  C   UNL     1      26.948   2.245   3.472  1.00  0.00     0.051 A 
ATOM     12  C   UNL     1      24.988   0.684   4.684  1.00  0.00     0.012 A 
ATOM     13  C   UNL     1      27.168   0.865   3.634  1.00  0.00    -0.015 A 
ATOM     14  C   UNL     1      26.177   0.078   4.262  1.00  0.00    -0.018 A 
ATOM     15  C   UNL     1      28.356   0.252   3.207  1.00  0.00     0.009 A 
ATOM     16  C   UNL     1      26.402  -1.293   4.456  1.00  0.00     0.009 A 
ATOM     17  C   UNL     1      28.566  -1.114   3.405  1.00  0.00     0.001 A 
ATOM     18  C   UNL     1      27.593  -1.884   4.033  1.00  0.00     0.001 A 
ENDBRANCH   5   9
TORSDOF 1
ENDMDL
MODEL 19
REMARK VINA RESULT:    -6.451      3.151      5.614
REMARK INTER + INTRA:          -6.985
REMARK INTER:                  -6.970
REMARK INTRA:                  -0.014
REMARK UNBOUND:                -0.157
REMARK SMILES [H]/[N+]=C(\N)Nc1ccc2ccccc2c1
REMARK SMILES IDX 1 1 2 2 3 3 4 4 5 5 6 9 7 10 15 11 8 12 14 13 9 14 13 15
REMARK SMILES IDX 10 16 12 17 11 18
REMARK H PARENT 4 6 4 7 5 8
ROOT
ATOM      1  H   UNL     1      26.962   6.929   4.571  1.00  0.00     0.309 HD
ATOM      2  N   UNL     1      26.995   6.217   5.302  1.00  0.00    -0.129 N 
ATOM      3  C   UNL     1      27.320   5.086   4.778  1.00  0.00     0.379 C 
ATOM      4  N   UNL     1      27.497   4.957   3.445  1.00  0.00    -0.288 N 
ATOM      5  N   UNL     1      27.425   3.984   5.562  1.00  0.00    -0.243 N 
ATOM      6  H   UNL     1      27.119   5.704   2.876  1.00  0.00     0.256 HD
ATOM      7  H   UNL     1      27.218   4.051   3.088  1.00  0.00     0.256 HD
ATOM      8  H   UNL     1      27.151   4.156   6.522  1.00  0.00     0.267 HD
ENDROOT
BRANCH   5   9
ATOM      9  C   UNL     1      27.808   2.668   5.265  1.00  0.00     0.100 A 
ATOM     10  C   UNL     1      29.057   2.336   4.732  1.00  0.00     0.043 A 
ATOM     11  C   UNL     1      26.853   1.646   5.390  1.00  0.00     0.051 A 
ATOM     12  C   UNL     1      29.339   1.041   4.292  1.00  0.00     0.012 A 
ATOM     13  C   UNL     1      27.115   0.334   4.955  1.00  0.00    -0.015 A 
ATOM     14  C   UNL     1      28.372   0.034   4.385  1.00  0.00    -0.018 A 
ATOM     15  C   UNL     1      26.151  -0.681   5.052  1.00  0.00     0.009 A 
ATOM     16  C   UNL     1      28.629  -1.264   3.919  1.00  0.00     0.009 A 
ATOM     17  C   UNL     1      26.421  -1.970   4.586  1.00  0.00     0.001 A 
ATOM     18  C   UNL     1      27.656  -2.259   4.016  1.00  0.00     0.001 A 
ENDBRANCH   5   9
TORSDOF 1
ENDMDL
MODEL 20
REMARK VINA RESULT:    -4.443      2.426      3.596
REMARK INTER + INTRA:          -4.859
REMARK INTER:                  -4.707
REMARK INTRA:                  -0.152
REMARK UNBOUND:                -0.157
REMARK SMILES [H]/[N+]=C(\N)Nc1ccc2ccccc2c1
REMARK SMILES IDX 1 1 2 2 3 3 4 4 5 5 6 9 7 10 15 11 8 12 14 13 9 14 13 15
REMARK SMILES IDX 10 16 12 17 11 18
REMARK H PARENT 4 6 4 7 5 8
ROOT
ATOM      1  H   UNL     1      24.680  -1.166   4.120  1.00  0.00     0.309 HD
ATOM      2  N   UNL     1      24.558  -0.353   3.514  1.00  0.00    -0.129 N 
ATOM      3  C   UNL     1      24.543   0.714   4.234  1.00  0.00     0.379 C 
ATOM      4  N   UNL     1      24.613   0.652   5.582  1.00  0.00    -0.288 N 
ATOM      5  N   UNL     1      24.390   1.926   3.642  1.00  0.00    -0.243 N 
ATOM      6  H   UNL     1      24.420  -0.254   5.991  1.00  0.00     0.256 HD
ATOM      7  H   UNL     1      24.085   1.381   6.046  1.00  0.00     0.256 HD
ATOM      8  H   UNL     1      24.219   1.858   2.646  1.00  0.00     0.267 HD
ENDROOT
BRANCH   5   9
ATOM      9  C   UNL     1      24.392   3.223   4.173  1.00  0.00     0.100 A 
ATOM     10  C   UNL     1      23.223   3.935   4.459  1.00  0.00     0.043 A 
ATOM     11  C   UNL     1      25.619   3.892   4.310  1.00  0.00     0.051 A 
ATOM     12  C   UNL     1      23.263   5.281   4.825  1.00  0.00     0.012 A 
ATOM     13  C   UNL     1      25.684   5.248   4.679  1.00  0.00    -0.015 A 
ATOM     14  C   UNL     1      24.486   5.954   4.926  1.00  0.00    -0.018 A 
ATOM     15  C   UNL     1      26.909   5.924   4.787  1.00  0.00     0.009 A 
ATOM     16  C   UNL     1      24.541   7.315   5.262  1.00  0.00     0.009 A 
ATOM     17  C   UNL     1      26.949   7.279   5.125  1.00  0.00     0.001 A 
ATOM     18  C   UNL     1      25.767   7.974   5.357  1.00  0.00     0.001 A 
ENDBRANCH   5   9
TORSDOF 1
ENDMDL
