REMARK SMILES [H]/[N+]=C(\N)Nc1ccc2ccccc2c1
REMARK SMILES IDX 1 1 2 2 3 3 4 4 5 5 6 9 7 10 15 11 8 12 14 13 9 14 13 15
REMARK SMILES IDX 10 16 12 17 11 18
REMARK H PARENT 4 6 4 7 5 8
ROOT
ATOM      1  H   UNL     1       1.215  -0.082   0.246  1.00  0.00     0.309 HD
ATOM      2  N   UNL     1       2.213  -0.025   0.038  1.00  0.00    -0.129 N 
ATOM      3  C   UNL     1       2.740   0.912   0.747  1.00  0.00     0.379 C 
ATOM      4  N   UNL     1       1.986   1.688   1.556  1.00  0.00    -0.288 N 
ATOM      5  N   UNL     1       4.067   1.176   0.638  1.00  0.00    -0.243 N 
ATOM      6  H   UNL     1       0.989   1.666   1.383  1.00  0.00     0.256 HD
ATOM      7  H   UNL     1       2.322   2.641   1.627  1.00  0.00     0.256 HD
ATOM      8  H   UNL     1       4.519   0.627  -0.084  1.00  0.00     0.267 HD
ENDROOT
BRANCH   5   9
ATOM      9  C   UNL     1       4.890   2.085   1.317  1.00  0.00     0.100 A 
ATOM     10  C   UNL     1       4.641   2.514   2.624  1.00  0.00     0.043 A 
ATOM     11  C   UNL     1       5.945   2.691   0.616  1.00  0.00     0.051 A 
ATOM     12  C   UNL     1       5.383   3.544   3.205  1.00  0.00     0.012 A 
ATOM     13  C   UNL     1       6.707   3.730   1.181  1.00  0.00    -0.015 A 
ATOM     14  C   UNL     1       6.410   4.170   2.490  1.00  0.00    -0.018 A 
ATOM     15  C   UNL     1       7.742   4.356   0.469  1.00  0.00     0.009 A 
ATOM     16  C   UNL     1       7.144   5.227   3.048  1.00  0.00     0.009 A 
ATOM     17  C   UNL     1       8.466   5.406   1.038  1.00  0.00     0.001 A 
ATOM     18  C   UNL     1       8.164   5.844   2.323  1.00  0.00     0.001 A 
ENDBRANCH   5   9
TORSDOF 1
