REMARK SMILES [H]/[N+]=C(\N)Nc1ccc(C(=O)O)cc1
REMARK SMILES IDX 6 1 7 2 8 3 9 4 13 5 14 6 5 7 2 8 3 9 4 10 1 11 10 15 11 16
REMARK SMILES IDX 12 17
REMARK H PARENT 4 12 4 13 5 14 12 18
ROOT
ATOM      1  C   UNL     1       4.928   1.623   1.819  1.00  0.00     0.099 A 
ATOM      2  C   UNL     1       4.559   1.568   3.174  1.00  0.00     0.044 A 
ATOM      3  C   UNL     1       5.360   2.142   4.171  1.00  0.00     0.019 A 
ATOM      4  C   UNL     1       6.547   2.794   3.822  1.00  0.00     0.060 A 
ATOM      5  C   UNL     1       6.950   2.817   2.487  1.00  0.00     0.019 A 
ATOM      6  C   UNL     1       6.141   2.244   1.501  1.00  0.00     0.044 A 
ENDROOT
BRANCH   1   7
ATOM      7  N   UNL     1       4.024   1.153   0.849  1.00  0.00    -0.243 N 
ATOM      8  N   UNL     1       4.672   2.361  -1.085  1.00  0.00    -0.129 N 
ATOM      9  C   UNL     1       3.969   1.476  -0.473  1.00  0.00     0.379 C 
ATOM     10  N   UNL     1       3.028   0.770  -1.148  1.00  0.00    -0.288 N 
ATOM     11  H   UNL     1       4.435   2.392  -2.077  1.00  0.00     0.309 HD
ATOM     12  H   UNL     1       2.800   1.142  -2.062  1.00  0.00     0.256 HD
ATOM     13  H   UNL     1       2.186   0.564  -0.626  1.00  0.00     0.256 HD
ATOM     14  H   UNL     1       3.424   0.409   1.166  1.00  0.00     0.267 HD
ENDBRANCH   1   7
BRANCH   4  15
ATOM     15  C   UNL     1       7.419   3.456   4.824  1.00  0.00     0.335 C 
ATOM     16  O   UNL     1       8.630   3.528   4.708  1.00  0.00    -0.246 OA
BRANCH  15  17
ATOM     17  O   UNL     1       6.740   4.014   5.849  1.00  0.00    -0.478 OA
ATOM     18  H   UNL     1       5.777   4.072   5.716  1.00  0.00     0.297 HD
ENDBRANCH  15  17
ENDBRANCH   4  15
TORSDOF 3
