MODEL 1
REMARK VINA RESULT:    -6.355      0.000      0.000
REMARK INTER + INTRA:          -7.466
REMARK INTER:                  -7.283
REMARK INTRA:                  -0.182
REMARK UNBOUND:                -0.182
REMARK SMILES [H]/[N+]=C(\N)Nc1ccc(C(=O)O)cc1
REMARK SMILES IDX 6 1 7 2 8 3 9 4 13 5 14 6 5 7 2 8 3 9 4 10 1 11 10 15 11 16
REMARK SMILES IDX 12 17
REMARK H PARENT 4 12 4 13 5 14 12 18
ROOT
ATOM      1  C   UNL     1      27.502   3.823   4.587  1.00  0.00     0.099 A 
ATOM      2  C   UNL     1      26.908   4.177   3.364  1.00  0.00     0.044 A 
ATOM      3  C   UNL     1      26.008   5.249   3.274  1.00  0.00     0.019 A 
ATOM      4  C   UNL     1      25.695   5.994   4.415  1.00  0.00     0.060 A 
ATOM      5  C   UNL     1      26.240   5.626   5.645  1.00  0.00     0.019 A 
ATOM      6  C   UNL     1      27.139   4.558   5.722  1.00  0.00     0.044 A 
ENDROOT
BRANCH   1   7
ATOM      7  N   UNL     1      28.499   2.831   4.597  1.00  0.00    -0.243 N 
ATOM      8  N   UNL     1      27.265   0.868   5.093  1.00  0.00    -0.129 N 
ATOM      9  C   UNL     1      28.346   1.490   4.783  1.00  0.00     0.379 C 
ATOM     10  N   UNL     1      29.508   0.804   4.640  1.00  0.00    -0.288 N 
ATOM     11  H   UNL     1      27.430  -0.136   5.162  1.00  0.00     0.309 HD
ATOM     12  H   UNL     1      29.481  -0.143   4.996  1.00  0.00     0.256 HD
ATOM     13  H   UNL     1      30.336   1.285   4.966  1.00  0.00     0.256 HD
ATOM     14  H   UNL     1      29.412   3.157   4.324  1.00  0.00     0.267 HD
ENDBRANCH   1   7
BRANCH   4  15
ATOM     15  C   UNL     1      24.781   7.163   4.380  1.00  0.00     0.335 C 
ATOM     16  O   UNL     1      24.456   7.783   5.377  1.00  0.00    -0.246 OA
BRANCH  15  17
ATOM     17  O   UNL     1      24.386   7.504   3.135  1.00  0.00    -0.478 OA
ATOM     18  H   UNL     1      23.871   6.821   2.669  1.00  0.00     0.297 HD
ENDBRANCH  15  17
ENDBRANCH   4  15
TORSDOF 3
ENDMDL
MODEL 2
REMARK VINA RESULT:    -6.253      4.227      5.660
REMARK INTER + INTRA:          -7.349
REMARK INTER:                  -7.227
REMARK INTRA:                  -0.122
REMARK UNBOUND:                -0.182
REMARK SMILES [H]/[N+]=C(\N)Nc1ccc(C(=O)O)cc1
REMARK SMILES IDX 6 1 7 2 8 3 9 4 13 5 14 6 5 7 2 8 3 9 4 10 1 11 10 15 11 16
REMARK SMILES IDX 12 17
REMARK H PARENT 4 12 4 13 5 14 12 18
ROOT
ATOM      1  C   UNL     1      26.561   5.331   4.925  1.00  0.00     0.099 A 
ATOM      2  C   UNL     1      27.156   4.549   5.930  1.00  0.00     0.044 A 
ATOM      3  C   UNL     1      27.776   3.328   5.631  1.00  0.00     0.019 A 
ATOM      4  C   UNL     1      27.817   2.872   4.310  1.00  0.00     0.060 A 
ATOM      5  C   UNL     1      27.191   3.613   3.308  1.00  0.00     0.019 A 
ATOM      6  C   UNL     1      26.579   4.832   3.617  1.00  0.00     0.044 A 
ENDROOT
BRANCH   1   7
ATOM      7  N   UNL     1      26.075   6.609   5.256  1.00  0.00    -0.243 N 
ATOM      8  N   UNL     1      23.738   6.367   4.944  1.00  0.00    -0.129 N 
ATOM      9  C   UNL     1      24.781   7.029   5.300  1.00  0.00     0.379 C 
ATOM     10  N   UNL     1      24.656   8.303   5.748  1.00  0.00    -0.288 N 
ATOM     11  H   UNL     1      22.891   6.916   5.090  1.00  0.00     0.309 HD
ATOM     12  H   UNL     1      23.751   8.722   5.574  1.00  0.00     0.256 HD
ATOM     13  H   UNL     1      25.400   8.932   5.472  1.00  0.00     0.256 HD
ATOM     14  H   UNL     1      26.777   7.243   5.603  1.00  0.00     0.267 HD
ENDBRANCH   1   7
BRANCH   4  15
ATOM     15  C   UNL     1      28.491   1.607   3.922  1.00  0.00     0.335 C 
ATOM     16  O   UNL     1      27.910   0.681   3.384  1.00  0.00    -0.246 OA
BRANCH  15  17
ATOM     17  O   UNL     1      29.818   1.600   4.176  1.00  0.00    -0.478 OA
ATOM     18  H   UNL     1      30.152   0.776   4.573  1.00  0.00     0.297 HD
ENDBRANCH  15  17
ENDBRANCH   4  15
TORSDOF 3
ENDMDL
MODEL 3
REMARK VINA RESULT:    -6.222      1.217      1.767
REMARK INTER + INTRA:          -7.314
REMARK INTER:                  -7.138
REMARK INTRA:                  -0.175
REMARK UNBOUND:                -0.182
REMARK SMILES [H]/[N+]=C(\N)Nc1ccc(C(=O)O)cc1
REMARK SMILES IDX 6 1 7 2 8 3 9 4 13 5 14 6 5 7 2 8 3 9 4 10 1 11 10 15 11 16
REMARK SMILES IDX 12 17
REMARK H PARENT 4 12 4 13 5 14 12 18
ROOT
ATOM      1  C   UNL     1      27.488   3.460   4.404  1.00  0.00     0.099 A 
ATOM      2  C   UNL     1      26.755   3.534   5.601  1.00  0.00     0.044 A 
ATOM      3  C   UNL     1      25.681   4.423   5.743  1.00  0.00     0.019 A 
ATOM      4  C   UNL     1      25.316   5.252   4.678  1.00  0.00     0.060 A 
ATOM      5  C   UNL     1      26.063   5.224   3.500  1.00  0.00     0.019 A 
ATOM      6  C   UNL     1      27.130   4.330   3.368  1.00  0.00     0.044 A 
ENDROOT
BRANCH   1   7
ATOM      7  N   UNL     1      28.465   2.458   4.267  1.00  0.00    -0.243 N 
ATOM      8  N   UNL     1      27.237   0.671   3.309  1.00  0.00    -0.129 N 
ATOM      9  C   UNL     1      28.325   1.218   3.720  1.00  0.00     0.379 C 
ATOM     10  N   UNL     1      29.494   0.533   3.662  1.00  0.00    -0.288 N 
ATOM     11  H   UNL     1      27.417  -0.261   2.935  1.00  0.00     0.309 HD
ATOM     12  H   UNL     1      29.390  -0.459   3.484  1.00  0.00     0.256 HD
ATOM     13  H   UNL     1      30.127   0.693   4.435  1.00  0.00     0.256 HD
ATOM     14  H   UNL     1      29.398   2.750   4.509  1.00  0.00     0.267 HD
ENDBRANCH   1   7
BRANCH   4  15
ATOM     15  C   UNL     1      24.166   6.187   4.750  1.00  0.00     0.335 C 
ATOM     16  O   UNL     1      24.277   7.392   4.603  1.00  0.00    -0.246 OA
BRANCH  15  17
ATOM     17  O   UNL     1      22.979   5.572   4.943  1.00  0.00    -0.478 OA
ATOM     18  H   UNL     1      22.199   6.138   4.802  1.00  0.00     0.297 HD
ENDBRANCH  15  17
ENDBRANCH   4  15
TORSDOF 3
ENDMDL
MODEL 4
REMARK VINA RESULT:    -6.169      1.329      1.844
REMARK INTER + INTRA:          -7.253
REMARK INTER:                  -7.084
REMARK INTRA:                  -0.169
REMARK UNBOUND:                -0.182
REMARK SMILES [H]/[N+]=C(\N)Nc1ccc(C(=O)O)cc1
REMARK SMILES IDX 6 1 7 2 8 3 9 4 13 5 14 6 5 7 2 8 3 9 4 10 1 11 10 15 11 16
REMARK SMILES IDX 12 17
REMARK H PARENT 4 12 4 13 5 14 12 18
ROOT
ATOM      1  C   UNL     1      26.446   3.573   6.039  1.00  0.00     0.099 A 
ATOM      2  C   UNL     1      25.050   3.566   5.878  1.00  0.00     0.044 A 
ATOM      3  C   UNL     1      24.367   4.686   5.383  1.00  0.00     0.019 A 
ATOM      4  C   UNL     1      25.080   5.836   5.029  1.00  0.00     0.060 A 
ATOM      5  C   UNL     1      26.461   5.875   5.226  1.00  0.00     0.019 A 
ATOM      6  C   UNL     1      27.130   4.751   5.717  1.00  0.00     0.044 A 
ENDROOT
BRANCH   1   7
ATOM      7  N   UNL     1      27.094   2.381   6.408  1.00  0.00    -0.243 N 
ATOM      8  N   UNL     1      27.701   1.455   4.312  1.00  0.00    -0.129 N 
ATOM      9  C   UNL     1      27.694   1.466   5.597  1.00  0.00     0.379 C 
ATOM     10  N   UNL     1      28.306   0.472   6.288  1.00  0.00    -0.288 N 
ATOM     11  H   UNL     1      28.235   0.661   3.958  1.00  0.00     0.309 HD
ATOM     12  H   UNL     1      28.555  -0.335   5.730  1.00  0.00     0.256 HD
ATOM     13  H   UNL     1      27.838   0.187   7.139  1.00  0.00     0.256 HD
ATOM     14  H   UNL     1      27.211   2.262   7.401  1.00  0.00     0.267 HD
ENDBRANCH   1   7
BRANCH   4  15
ATOM     15  C   UNL     1      24.423   7.041   4.463  1.00  0.00     0.335 C 
ATOM     16  O   UNL     1      24.467   7.328   3.279  1.00  0.00    -0.246 OA
BRANCH  15  17
ATOM     17  O   UNL     1      23.732   7.759   5.373  1.00  0.00    -0.478 OA
ATOM     18  H   UNL     1      24.273   8.362   5.913  1.00  0.00     0.297 HD
ENDBRANCH  15  17
ENDBRANCH   4  15
TORSDOF 3
ENDMDL
MODEL 5
REMARK VINA RESULT:    -6.118      1.757      2.482
REMARK INTER + INTRA:          -7.194
REMARK INTER:                  -7.025
REMARK INTRA:                  -0.170
REMARK UNBOUND:                -0.182
REMARK SMILES [H]/[N+]=C(\N)Nc1ccc(C(=O)O)cc1
REMARK SMILES IDX 6 1 7 2 8 3 9 4 13 5 14 6 5 7 2 8 3 9 4 10 1 11 10 15 11 16
REMARK SMILES IDX 12 17
REMARK H PARENT 4 12 4 13 5 14 12 18
ROOT
ATOM      1  C   UNL     1      26.866   2.017   5.060  1.00  0.00     0.099 A 
ATOM      2  C   UNL     1      26.627   2.750   6.235  1.00  0.00     0.044 A 
ATOM      3  C   UNL     1      25.742   3.837   6.248  1.00  0.00     0.019 A 
ATOM      4  C   UNL     1      25.069   4.203   5.077  1.00  0.00     0.060 A 
ATOM      5  C   UNL     1      25.330   3.514   3.893  1.00  0.00     0.019 A 
ATOM      6  C   UNL     1      26.213   2.430   3.893  1.00  0.00     0.044 A 
ENDROOT
BRANCH   1   7
ATOM      7  N   UNL     1      27.655   0.855   5.133  1.00  0.00    -0.243 N 
ATOM      8  N   UNL     1      29.768   1.621   4.378  1.00  0.00    -0.129 N 
ATOM      9  C   UNL     1      28.983   0.725   4.860  1.00  0.00     0.379 C 
ATOM     10  N   UNL     1      29.454  -0.520   5.121  1.00  0.00    -0.288 N 
ATOM     11  H   UNL     1      30.717   1.261   4.281  1.00  0.00     0.309 HD
ATOM     12  H   UNL     1      30.361  -0.719   4.718  1.00  0.00     0.256 HD
ATOM     13  H   UNL     1      28.806  -1.275   4.933  1.00  0.00     0.256 HD
ATOM     14  H   UNL     1      27.189   0.061   5.541  1.00  0.00     0.267 HD
ENDBRANCH   1   7
BRANCH   4  15
ATOM     15  C   UNL     1      24.090   5.317   5.033  1.00  0.00     0.335 C 
ATOM     16  O   UNL     1      24.418   6.491   5.041  1.00  0.00    -0.246 OA
BRANCH  15  17
ATOM     17  O   UNL     1      22.807   4.908   4.933  1.00  0.00    -0.478 OA
ATOM     18  H   UNL     1      22.145   5.615   5.038  1.00  0.00     0.297 HD
ENDBRANCH  15  17
ENDBRANCH   4  15
TORSDOF 3
ENDMDL
MODEL 6
REMARK VINA RESULT:    -6.082      4.457      5.851
REMARK INTER + INTRA:          -7.153
REMARK INTER:                  -6.970
REMARK INTRA:                  -0.183
REMARK UNBOUND:                -0.182
REMARK SMILES [H]/[N+]=C(\N)Nc1ccc(C(=O)O)cc1
REMARK SMILES IDX 6 1 7 2 8 3 9 4 13 5 14 6 5 7 2 8 3 9 4 10 1 11 10 15 11 16
REMARK SMILES IDX 12 17
REMARK H PARENT 4 12 4 13 5 14 12 18
ROOT
ATOM      1  C   UNL     1      26.231   3.850   4.861  1.00  0.00     0.099 A 
ATOM      2  C   UNL     1      26.657   3.316   6.090  1.00  0.00     0.044 A 
ATOM      3  C   UNL     1      27.493   2.192   6.145  1.00  0.00     0.019 A 
ATOM      4  C   UNL     1      27.927   1.587   4.961  1.00  0.00     0.060 A 
ATOM      5  C   UNL     1      27.475   2.077   3.735  1.00  0.00     0.019 A 
ATOM      6  C   UNL     1      26.644   3.200   3.693  1.00  0.00     0.044 A 
ENDROOT
BRANCH   1   7
ATOM      7  N   UNL     1      25.507   5.056   4.859  1.00  0.00    -0.243 N 
ATOM      8  N   UNL     1      23.260   4.307   4.967  1.00  0.00    -0.129 N 
ATOM      9  C   UNL     1      24.159   5.226   4.957  1.00  0.00     0.379 C 
ATOM     10  N   UNL     1      23.796   6.531   5.016  1.00  0.00    -0.288 N 
ATOM     11  H   UNL     1      22.328   4.711   5.059  1.00  0.00     0.309 HD
ATOM     12  H   UNL     1      22.811   6.701   4.854  1.00  0.00     0.256 HD
ATOM     13  H   UNL     1      24.363   7.162   4.463  1.00  0.00     0.256 HD
ATOM     14  H   UNL     1      26.079   5.884   4.899  1.00  0.00     0.267 HD
ENDBRANCH   1   7
BRANCH   4  15
ATOM     15  C   UNL     1      28.843   0.420   4.949  1.00  0.00     0.335 C 
ATOM     16  O   UNL     1      29.031  -0.288   5.923  1.00  0.00    -0.246 OA
BRANCH  15  17
ATOM     17  O   UNL     1      29.409   0.187   3.746  1.00  0.00    -0.478 OA
ATOM     18  H   UNL     1      28.854   0.426   2.982  1.00  0.00     0.297 HD
ENDBRANCH  15  17
ENDBRANCH   4  15
TORSDOF 3
ENDMDL
MODEL 7
REMARK VINA RESULT:    -6.007      1.398      1.798
REMARK INTER + INTRA:          -7.067
REMARK INTER:                  -6.920
REMARK INTRA:                  -0.147
REMARK UNBOUND:                -0.182
REMARK SMILES [H]/[N+]=C(\N)Nc1ccc(C(=O)O)cc1
REMARK SMILES IDX 6 1 7 2 8 3 9 4 13 5 14 6 5 7 2 8 3 9 4 10 1 11 10 15 11 16
REMARK SMILES IDX 12 17
REMARK H PARENT 4 12 4 13 5 14 12 18
ROOT
ATOM      1  C   UNL     1      26.883   2.090   4.956  1.00  0.00     0.099 A 
ATOM      2  C   UNL     1      26.457   2.696   3.761  1.00  0.00     0.044 A 
ATOM      3  C   UNL     1      25.876   3.972   3.758  1.00  0.00     0.019 A 
ATOM      4  C   UNL     1      25.721   4.670   4.960  1.00  0.00     0.060 A 
ATOM      5  C   UNL     1      26.096   4.064   6.159  1.00  0.00     0.019 A 
ATOM      6  C   UNL     1      26.678   2.792   6.149  1.00  0.00     0.044 A 
ENDROOT
BRANCH   1   7
ATOM      7  N   UNL     1      27.582   0.872   4.888  1.00  0.00    -0.243 N 
ATOM      8  N   UNL     1      29.768   1.566   4.287  1.00  0.00    -0.129 N 
ATOM      9  C   UNL     1      28.905   0.676   4.628  1.00  0.00     0.379 C 
ATOM     10  N   UNL     1      29.274  -0.625   4.729  1.00  0.00    -0.288 N 
ATOM     11  H   UNL     1      30.691   1.149   4.162  1.00  0.00     0.309 HD
ATOM     12  H   UNL     1      30.176  -0.838   4.321  1.00  0.00     0.256 HD
ATOM     13  H   UNL     1      28.579  -1.295   4.427  1.00  0.00     0.256 HD
ATOM     14  H   UNL     1      27.047   0.069   5.176  1.00  0.00     0.267 HD
ENDBRANCH   1   7
BRANCH   4  15
ATOM     15  C   UNL     1      25.150   6.038   5.021  1.00  0.00     0.335 C 
ATOM     16  O   UNL     1      25.834   7.046   4.995  1.00  0.00    -0.246 OA
BRANCH  15  17
ATOM     17  O   UNL     1      23.800   6.062   5.055  1.00  0.00    -0.478 OA
ATOM     18  H   UNL     1      23.379   6.438   4.262  1.00  0.00     0.297 HD
ENDBRANCH  15  17
ENDBRANCH   4  15
TORSDOF 3
ENDMDL
MODEL 8
REMARK VINA RESULT:    -5.982      4.421      5.658
REMARK INTER + INTRA:          -7.038
REMARK INTER:                  -6.857
REMARK INTRA:                  -0.181
REMARK UNBOUND:                -0.182
REMARK SMILES [H]/[N+]=C(\N)Nc1ccc(C(=O)O)cc1
REMARK SMILES IDX 6 1 7 2 8 3 9 4 13 5 14 6 5 7 2 8 3 9 4 10 1 11 10 15 11 16
REMARK SMILES IDX 12 17
REMARK H PARENT 4 12 4 13 5 14 12 18
ROOT
ATOM      1  C   UNL     1      26.507   4.012   4.887  1.00  0.00     0.099 A 
ATOM      2  C   UNL     1      26.760   3.274   3.718  1.00  0.00     0.044 A 
ATOM      3  C   UNL     1      27.511   2.091   3.751  1.00  0.00     0.019 A 
ATOM      4  C   UNL     1      28.015   1.620   4.968  1.00  0.00     0.060 A 
ATOM      5  C   UNL     1      27.811   2.364   6.130  1.00  0.00     0.019 A 
ATOM      6  C   UNL     1      27.057   3.541   6.084  1.00  0.00     0.044 A 
ENDROOT
BRANCH   1   7
ATOM      7  N   UNL     1      25.635   5.115   4.820  1.00  0.00    -0.243 N 
ATOM      8  N   UNL     1      23.536   4.142   5.335  1.00  0.00    -0.129 N 
ATOM      9  C   UNL     1      24.298   5.144   5.077  1.00  0.00     0.379 C 
ATOM     10  N   UNL     1      23.777   6.394   5.006  1.00  0.00    -0.288 N 
ATOM     11  H   UNL     1      22.576   4.448   5.498  1.00  0.00     0.309 HD
ATOM     12  H   UNL     1      22.765   6.425   4.959  1.00  0.00     0.256 HD
ATOM     13  H   UNL     1      24.185   6.993   4.300  1.00  0.00     0.256 HD
ATOM     14  H   UNL     1      26.094   5.998   4.667  1.00  0.00     0.267 HD
ENDBRANCH   1   7
BRANCH   4  15
ATOM     15  C   UNL     1      28.783   0.354   5.078  1.00  0.00     0.335 C 
ATOM     16  O   UNL     1      28.840  -0.302   6.103  1.00  0.00    -0.246 OA
BRANCH  15  17
ATOM     17  O   UNL     1      29.369  -0.025   3.922  1.00  0.00    -0.478 OA
ATOM     18  H   UNL     1      30.237   0.382   3.753  1.00  0.00     0.297 HD
ENDBRANCH  15  17
ENDBRANCH   4  15
TORSDOF 3
ENDMDL
MODEL 9
REMARK VINA RESULT:    -5.979      4.595      6.311
REMARK INTER + INTRA:          -7.036
REMARK INTER:                  -6.855
REMARK INTRA:                  -0.181
REMARK UNBOUND:                -0.182
REMARK SMILES [H]/[N+]=C(\N)Nc1ccc(C(=O)O)cc1
REMARK SMILES IDX 6 1 7 2 8 3 9 4 13 5 14 6 5 7 2 8 3 9 4 10 1 11 10 15 11 16
REMARK SMILES IDX 12 17
REMARK H PARENT 4 12 4 13 5 14 12 18
ROOT
ATOM      1  C   UNL     1      27.768   2.808   4.080  1.00  0.00     0.099 A 
ATOM      2  C   UNL     1      28.814   2.215   4.807  1.00  0.00     0.044 A 
ATOM      3  C   UNL     1      29.088   0.844   4.702  1.00  0.00     0.019 A 
ATOM      4  C   UNL     1      28.318   0.043   3.854  1.00  0.00     0.060 A 
ATOM      5  C   UNL     1      27.248   0.607   3.161  1.00  0.00     0.019 A 
ATOM      6  C   UNL     1      26.986   1.977   3.271  1.00  0.00     0.044 A 
ENDROOT
BRANCH   1   7
ATOM      7  N   UNL     1      27.623   4.207   4.117  1.00  0.00    -0.243 N 
ATOM      8  N   UNL     1      26.148   4.524   5.945  1.00  0.00    -0.129 N 
ATOM      9  C   UNL     1      26.916   4.955   5.009  1.00  0.00     0.379 C 
ATOM     10  N   UNL     1      27.063   6.288   4.810  1.00  0.00    -0.288 N 
ATOM     11  H   UNL     1      25.748   5.299   6.474  1.00  0.00     0.309 HD
ATOM     12  H   UNL     1      26.381   6.862   5.293  1.00  0.00     0.256 HD
ATOM     13  H   UNL     1      27.148   6.574   3.843  1.00  0.00     0.256 HD
ATOM     14  H   UNL     1      28.207   4.702   3.462  1.00  0.00     0.267 HD
ENDBRANCH   1   7
BRANCH   4  15
ATOM     15  C   UNL     1      28.581  -1.406   3.668  1.00  0.00     0.335 C 
ATOM     16  O   UNL     1      27.758  -2.178   3.208  1.00  0.00    -0.246 OA
BRANCH  15  17
ATOM     17  O   UNL     1      29.834  -1.778   4.008  1.00  0.00    -0.478 OA
ATOM     18  H   UNL     1      30.170  -2.560   3.535  1.00  0.00     0.297 HD
ENDBRANCH  15  17
ENDBRANCH   4  15
TORSDOF 3
ENDMDL
MODEL 10
REMARK VINA RESULT:    -5.942      2.419      2.769
REMARK INTER + INTRA:          -6.992
REMARK INTER:                  -6.864
REMARK INTRA:                  -0.128
REMARK UNBOUND:                -0.182
REMARK SMILES [H]/[N+]=C(\N)Nc1ccc(C(=O)O)cc1
REMARK SMILES IDX 6 1 7 2 8 3 9 4 13 5 14 6 5 7 2 8 3 9 4 10 1 11 10 15 11 16
REMARK SMILES IDX 12 17
REMARK H PARENT 4 12 4 13 5 14 12 18
ROOT
ATOM      1  C   UNL     1      26.601   1.634   4.155  1.00  0.00     0.099 A 
ATOM      2  C   UNL     1      26.726   2.974   3.749  1.00  0.00     0.044 A 
ATOM      3  C   UNL     1      25.662   3.878   3.881  1.00  0.00     0.019 A 
ATOM      4  C   UNL     1      24.451   3.452   4.436  1.00  0.00     0.060 A 
ATOM      5  C   UNL     1      24.296   2.115   4.801  1.00  0.00     0.019 A 
ATOM      6  C   UNL     1      25.365   1.224   4.667  1.00  0.00     0.044 A 
ENDROOT
BRANCH   1   7
ATOM      7  N   UNL     1      27.738   0.807   4.127  1.00  0.00    -0.243 N 
ATOM      8  N   UNL     1      28.308   0.640   6.422  1.00  0.00    -0.129 N 
ATOM      9  C   UNL     1      28.460   0.337   5.182  1.00  0.00     0.379 C 
ATOM     10  N   UNL     1      29.446  -0.515   4.806  1.00  0.00    -0.288 N 
ATOM     11  H   UNL     1      28.978   0.136   7.004  1.00  0.00     0.309 HD
ATOM     12  H   UNL     1      30.139  -0.697   5.523  1.00  0.00     0.256 HD
ATOM     13  H   UNL     1      29.893  -0.296   3.925  1.00  0.00     0.256 HD
ATOM     14  H   UNL     1      27.964   0.442   3.216  1.00  0.00     0.267 HD
ENDBRANCH   1   7
BRANCH   4  15
ATOM     15  C   UNL     1      23.301   4.368   4.640  1.00  0.00     0.335 C 
ATOM     16  O   UNL     1      22.147   4.046   4.416  1.00  0.00    -0.246 OA
BRANCH  15  17
ATOM     17  O   UNL     1      23.649   5.571   5.145  1.00  0.00    -0.478 OA
ATOM     18  H   UNL     1      24.604   5.761   5.124  1.00  0.00     0.297 HD
ENDBRANCH  15  17
ENDBRANCH   4  15
TORSDOF 3
ENDMDL
MODEL 11
REMARK VINA RESULT:    -5.937      4.338      5.796
REMARK INTER + INTRA:          -6.987
REMARK INTER:                  -6.807
REMARK INTRA:                  -0.179
REMARK UNBOUND:                -0.182
REMARK SMILES [H]/[N+]=C(\N)Nc1ccc(C(=O)O)cc1
REMARK SMILES IDX 6 1 7 2 8 3 9 4 13 5 14 6 5 7 2 8 3 9 4 10 1 11 10 15 11 16
REMARK SMILES IDX 12 17
REMARK H PARENT 4 12 4 13 5 14 12 18
ROOT
ATOM      1  C   UNL     1      25.688   3.833   4.859  1.00  0.00     0.099 A 
ATOM      2  C   UNL     1      26.164   3.262   6.051  1.00  0.00     0.044 A 
ATOM      3  C   UNL     1      27.192   2.308   6.041  1.00  0.00     0.019 A 
ATOM      4  C   UNL     1      27.769   1.917   4.829  1.00  0.00     0.060 A 
ATOM      5  C   UNL     1      27.276   2.441   3.634  1.00  0.00     0.019 A 
ATOM      6  C   UNL     1      26.253   3.394   3.656  1.00  0.00     0.044 A 
ENDROOT
BRANCH   1   7
ATOM      7  N   UNL     1      24.753   4.882   4.934  1.00  0.00    -0.243 N 
ATOM      8  N   UNL     1      26.141   6.789   5.180  1.00  0.00    -0.129 N 
ATOM      9  C   UNL     1      24.998   6.219   5.032  1.00  0.00     0.379 C 
ATOM     10  N   UNL     1      23.867   6.965   4.992  1.00  0.00    -0.288 N 
ATOM     11  H   UNL     1      26.039   7.804   5.215  1.00  0.00     0.309 HD
ATOM     12  H   UNL     1      23.986   7.925   5.292  1.00  0.00     0.256 HD
ATOM     13  H   UNL     1      23.059   6.549   5.438  1.00  0.00     0.256 HD
ATOM     14  H   UNL     1      23.798   4.599   4.788  1.00  0.00     0.267 HD
ENDBRANCH   1   7
BRANCH   4  15
ATOM     15  C   UNL     1      28.886   0.943   4.753  1.00  0.00     0.335 C 
ATOM     16  O   UNL     1      28.993  -0.007   5.509  1.00  0.00    -0.246 OA
BRANCH  15  17
ATOM     17  O   UNL     1      29.743   1.179   3.737  1.00  0.00    -0.478 OA
ATOM     18  H   UNL     1      30.684   1.066   3.964  1.00  0.00     0.297 HD
ENDBRANCH  15  17
ENDBRANCH   4  15
TORSDOF 3
ENDMDL
MODEL 12
REMARK VINA RESULT:    -5.930      4.405      5.768
REMARK INTER + INTRA:          -6.979
REMARK INTER:                  -6.798
REMARK INTRA:                  -0.181
REMARK UNBOUND:                -0.182
REMARK SMILES [H]/[N+]=C(\N)Nc1ccc(C(=O)O)cc1
REMARK SMILES IDX 6 1 7 2 8 3 9 4 13 5 14 6 5 7 2 8 3 9 4 10 1 11 10 15 11 16
REMARK SMILES IDX 12 17
REMARK H PARENT 4 12 4 13 5 14 12 18
ROOT
ATOM      1  C   UNL     1      25.988   3.639   5.022  1.00  0.00     0.099 A 
ATOM      2  C   UNL     1      26.459   3.153   3.790  1.00  0.00     0.044 A 
ATOM      3  C   UNL     1      27.410   2.125   3.729  1.00  0.00     0.019 A 
ATOM      4  C   UNL     1      27.899   1.556   4.909  1.00  0.00     0.060 A 
ATOM      5  C   UNL     1      27.476   2.058   6.139  1.00  0.00     0.019 A 
ATOM      6  C   UNL     1      26.524   3.082   6.188  1.00  0.00     0.044 A 
ENDROOT
BRANCH   1   7
ATOM      7  N   UNL     1      24.937   4.574   5.026  1.00  0.00    -0.243 N 
ATOM      8  N   UNL     1      26.091   6.644   5.073  1.00  0.00    -0.129 N 
ATOM      9  C   UNL     1      25.023   5.933   5.001  1.00  0.00     0.379 C 
ATOM     10  N   UNL     1      23.810   6.535   4.921  1.00  0.00    -0.288 N 
ATOM     11  H   UNL     1      25.870   7.639   5.021  1.00  0.00     0.309 HD
ATOM     12  H   UNL     1      23.818   7.526   5.133  1.00  0.00     0.256 HD
ATOM     13  H   UNL     1      23.063   6.069   5.419  1.00  0.00     0.256 HD
ATOM     14  H   UNL     1      24.020   4.169   4.927  1.00  0.00     0.267 HD
ENDBRANCH   1   7
BRANCH   4  15
ATOM     15  C   UNL     1      28.875   0.439   4.912  1.00  0.00     0.335 C 
ATOM     16  O   UNL     1      29.048  -0.291   5.872  1.00  0.00    -0.246 OA
BRANCH  15  17
ATOM     17  O   UNL     1      29.516   0.276   3.735  1.00  0.00    -0.478 OA
ATOM     18  H   UNL     1      29.869   1.096   3.346  1.00  0.00     0.297 HD
ENDBRANCH  15  17
ENDBRANCH   4  15
TORSDOF 3
ENDMDL
MODEL 13
REMARK VINA RESULT:    -5.920      4.428      5.734
REMARK INTER + INTRA:          -6.968
REMARK INTER:                  -6.792
REMARK INTRA:                  -0.176
REMARK UNBOUND:                -0.182
REMARK SMILES [H]/[N+]=C(\N)Nc1ccc(C(=O)O)cc1
REMARK SMILES IDX 6 1 7 2 8 3 9 4 13 5 14 6 5 7 2 8 3 9 4 10 1 11 10 15 11 16
REMARK SMILES IDX 12 17
REMARK H PARENT 4 12 4 13 5 14 12 18
ROOT
ATOM      1  C   UNL     1      26.302   3.837   4.041  1.00  0.00     0.099 A 
ATOM      2  C   UNL     1      25.985   2.768   3.185  1.00  0.00     0.044 A 
ATOM      3  C   UNL     1      26.783   1.618   3.130  1.00  0.00     0.019 A 
ATOM      4  C   UNL     1      27.915   1.515   3.946  1.00  0.00     0.060 A 
ATOM      5  C   UNL     1      28.268   2.586   4.766  1.00  0.00     0.019 A 
ATOM      6  C   UNL     1      27.462   3.727   4.815  1.00  0.00     0.044 A 
ENDROOT
BRANCH   1   7
ATOM      7  N   UNL     1      25.395   4.906   4.157  1.00  0.00    -0.243 N 
ATOM      8  N   UNL     1      23.849   4.096   5.761  1.00  0.00    -0.129 N 
ATOM      9  C   UNL     1      24.318   5.007   4.985  1.00  0.00     0.379 C 
ATOM     10  N   UNL     1      23.707   6.216   4.909  1.00  0.00    -0.288 N 
ATOM     11  H   UNL     1      23.040   4.441   6.279  1.00  0.00     0.309 HD
ATOM     12  H   UNL     1      22.784   6.246   5.324  1.00  0.00     0.256 HD
ATOM     13  H   UNL     1      23.699   6.638   3.989  1.00  0.00     0.256 HD
ATOM     14  H   UNL     1      25.653   5.729   3.636  1.00  0.00     0.267 HD
ENDBRANCH   1   7
BRANCH   4  15
ATOM     15  C   UNL     1      28.779   0.308   3.964  1.00  0.00     0.335 C 
ATOM     16  O   UNL     1      28.849  -0.474   3.033  1.00  0.00    -0.246 OA
BRANCH  15  17
ATOM     17  O   UNL     1      29.516   0.187   5.089  1.00  0.00    -0.478 OA
ATOM     18  H   UNL     1      29.242  -0.537   5.679  1.00  0.00     0.297 HD
ENDBRANCH  15  17
ENDBRANCH   4  15
TORSDOF 3
ENDMDL
MODEL 14
REMARK VINA RESULT:    -5.909      1.524      2.379
REMARK INTER + INTRA:          -6.955
REMARK INTER:                  -6.793
REMARK INTRA:                  -0.162
REMARK UNBOUND:                -0.182
REMARK SMILES [H]/[N+]=C(\N)Nc1ccc(C(=O)O)cc1
REMARK SMILES IDX 6 1 7 2 8 3 9 4 13 5 14 6 5 7 2 8 3 9 4 10 1 11 10 15 11 16
REMARK SMILES IDX 12 17
REMARK H PARENT 4 12 4 13 5 14 12 18
ROOT
ATOM      1  C   UNL     1      28.254   2.236   4.467  1.00  0.00     0.099 A 
ATOM      2  C   UNL     1      28.267   2.934   5.687  1.00  0.00     0.044 A 
ATOM      3  C   UNL     1      27.373   3.985   5.936  1.00  0.00     0.019 A 
ATOM      4  C   UNL     1      26.438   4.349   4.962  1.00  0.00     0.060 A 
ATOM      5  C   UNL     1      26.442   3.697   3.729  1.00  0.00     0.019 A 
ATOM      6  C   UNL     1      27.336   2.648   3.494  1.00  0.00     0.044 A 
ENDROOT
BRANCH   1   7
ATOM      7  N   UNL     1      29.077   1.105   4.322  1.00  0.00    -0.243 N 
ATOM      8  N   UNL     1      27.792  -0.600   5.352  1.00  0.00    -0.129 N 
ATOM      9  C   UNL     1      28.813  -0.178   4.694  1.00  0.00     0.379 C 
ATOM     10  N   UNL     1      29.789  -1.044   4.325  1.00  0.00    -0.288 N 
ATOM     11  H   UNL     1      27.839  -1.611   5.487  1.00  0.00     0.309 HD
ATOM     12  H   UNL     1      29.742  -1.948   4.780  1.00  0.00     0.256 HD
ATOM     13  H   UNL     1      30.730  -0.675   4.360  1.00  0.00     0.256 HD
ATOM     14  H   UNL     1      29.910   1.264   3.779  1.00  0.00     0.267 HD
ENDBRANCH   1   7
BRANCH   4  15
ATOM     15  C   UNL     1      25.438   5.425   5.177  1.00  0.00     0.335 C 
ATOM     16  O   UNL     1      24.238   5.219   5.223  1.00  0.00    -0.246 OA
BRANCH  15  17
ATOM     17  O   UNL     1      25.987   6.644   5.367  1.00  0.00    -0.478 OA
ATOM     18  H   UNL     1      26.580   6.708   6.137  1.00  0.00     0.297 HD
ENDBRANCH  15  17
ENDBRANCH   4  15
TORSDOF 3
ENDMDL
MODEL 15
REMARK VINA RESULT:    -5.894      1.511      2.006
REMARK INTER + INTRA:          -6.938
REMARK INTER:                  -6.910
REMARK INTRA:                  -0.028
REMARK UNBOUND:                -0.182
REMARK SMILES [H]/[N+]=C(\N)Nc1ccc(C(=O)O)cc1
REMARK SMILES IDX 6 1 7 2 8 3 9 4 13 5 14 6 5 7 2 8 3 9 4 10 1 11 10 15 11 16
REMARK SMILES IDX 12 17
REMARK H PARENT 4 12 4 13 5 14 12 18
ROOT
ATOM      1  C   UNL     1      28.067   2.124   4.423  1.00  0.00     0.099 A 
ATOM      2  C   UNL     1      27.119   2.540   3.472  1.00  0.00     0.044 A 
ATOM      3  C   UNL     1      26.427   3.751   3.616  1.00  0.00     0.019 A 
ATOM      4  C   UNL     1      26.683   4.574   4.717  1.00  0.00     0.060 A 
ATOM      5  C   UNL     1      27.587   4.153   5.692  1.00  0.00     0.019 A 
ATOM      6  C   UNL     1      28.274   2.945   5.536  1.00  0.00     0.044 A 
ENDROOT
BRANCH   1   7
ATOM      7  N   UNL     1      28.829   0.971   4.161  1.00  0.00    -0.243 N 
ATOM      8  N   UNL     1      28.495  -0.321   6.121  1.00  0.00    -0.129 N 
ATOM      9  C   UNL     1      28.961  -0.141   4.937  1.00  0.00     0.379 C 
ATOM     10  N   UNL     1      29.702  -1.110   4.344  1.00  0.00    -0.288 N 
ATOM     11  H   UNL     1      28.732  -1.250   6.468  1.00  0.00     0.309 HD
ATOM     12  H   UNL     1      30.014  -1.842   4.971  1.00  0.00     0.256 HD
ATOM     13  H   UNL     1      30.469  -0.779   3.773  1.00  0.00     0.256 HD
ATOM     14  H   UNL     1      29.230   0.938   3.238  1.00  0.00     0.267 HD
ENDBRANCH   1   7
BRANCH   4  15
ATOM     15  C   UNL     1      26.015   5.885   4.907  1.00  0.00     0.335 C 
ATOM     16  O   UNL     1      24.818   6.051   4.749  1.00  0.00    -0.246 OA
BRANCH  15  17
ATOM     17  O   UNL     1      26.848   6.864   5.320  1.00  0.00    -0.478 OA
ATOM     18  H   UNL     1      26.783   7.694   4.815  1.00  0.00     0.297 HD
ENDBRANCH  15  17
ENDBRANCH   4  15
TORSDOF 3
ENDMDL
MODEL 16
REMARK VINA RESULT:    -5.846      2.834      3.713
REMARK INTER + INTRA:          -6.883
REMARK INTER:                  -6.713
REMARK INTRA:                  -0.170
REMARK UNBOUND:                -0.182
REMARK SMILES [H]/[N+]=C(\N)Nc1ccc(C(=O)O)cc1
REMARK SMILES IDX 6 1 7 2 8 3 9 4 13 5 14 6 5 7 2 8 3 9 4 10 1 11 10 15 11 16
REMARK SMILES IDX 12 17
REMARK H PARENT 4 12 4 13 5 14 12 18
ROOT
ATOM      1  C   UNL     1      26.753   0.293   3.817  1.00  0.00     0.099 A 
ATOM      2  C   UNL     1      25.615   0.173   4.633  1.00  0.00     0.044 A 
ATOM      3  C   UNL     1      24.750   1.256   4.839  1.00  0.00     0.019 A 
ATOM      4  C   UNL     1      25.007   2.482   4.217  1.00  0.00     0.060 A 
ATOM      5  C   UNL     1      26.157   2.630   3.442  1.00  0.00     0.019 A 
ATOM      6  C   UNL     1      27.011   1.541   3.241  1.00  0.00     0.044 A 
ENDROOT
BRANCH   1   7
ATOM      7  N   UNL     1      27.511  -0.859   3.534  1.00  0.00    -0.243 N 
ATOM      8  N   UNL     1      29.418  -0.569   4.912  1.00  0.00    -0.129 N 
ATOM      9  C   UNL     1      28.695  -1.240   4.088  1.00  0.00     0.379 C 
ATOM     10  N   UNL     1      29.111  -2.456   3.654  1.00  0.00    -0.288 N 
ATOM     11  H   UNL     1      30.252  -1.094   5.176  1.00  0.00     0.309 HD
ATOM     12  H   UNL     1      30.081  -2.665   3.857  1.00  0.00     0.256 HD
ATOM     13  H   UNL     1      28.895  -2.667   2.688  1.00  0.00     0.256 HD
ATOM     14  H   UNL     1      27.052  -1.519   2.928  1.00  0.00     0.267 HD
ENDBRANCH   1   7
BRANCH   4  15
ATOM     15  C   UNL     1      24.109   3.655   4.363  1.00  0.00     0.335 C 
ATOM     16  O   UNL     1      22.919   3.556   4.605  1.00  0.00    -0.246 OA
BRANCH  15  17
ATOM     17  O   UNL     1      24.745   4.841   4.251  1.00  0.00    -0.478 OA
ATOM     18  H   UNL     1      24.458   5.388   3.498  1.00  0.00     0.297 HD
ENDBRANCH  15  17
ENDBRANCH   4  15
TORSDOF 3
ENDMDL
MODEL 17
REMARK VINA RESULT:    -5.777      4.664      6.309
REMARK INTER + INTRA:          -6.804
REMARK INTER:                  -6.627
REMARK INTRA:                  -0.176
REMARK UNBOUND:                -0.182
REMARK SMILES [H]/[N+]=C(\N)Nc1ccc(C(=O)O)cc1
REMARK SMILES IDX 6 1 7 2 8 3 9 4 13 5 14 6 5 7 2 8 3 9 4 10 1 11 10 15 11 16
REMARK SMILES IDX 12 17
REMARK H PARENT 4 12 4 13 5 14 12 18
ROOT
ATOM      1  C   UNL     1      27.912   2.378   3.864  1.00  0.00     0.099 A 
ATOM      2  C   UNL     1      26.933   1.659   3.157  1.00  0.00     0.044 A 
ATOM      3  C   UNL     1      26.941   0.258   3.123  1.00  0.00     0.019 A 
ATOM      4  C   UNL     1      27.931  -0.451   3.811  1.00  0.00     0.060 A 
ATOM      5  C   UNL     1      28.936   0.249   4.479  1.00  0.00     0.019 A 
ATOM      6  C   UNL     1      28.916   1.647   4.509  1.00  0.00     0.044 A 
ENDROOT
BRANCH   1   7
ATOM      7  N   UNL     1      27.779   3.774   3.979  1.00  0.00    -0.243 N 
ATOM      8  N   UNL     1      26.535   4.009   5.983  1.00  0.00    -0.129 N 
ATOM      9  C   UNL     1      27.188   4.481   4.981  1.00  0.00     0.379 C 
ATOM     10  N   UNL     1      27.316   5.822   4.825  1.00  0.00    -0.288 N 
ATOM     11  H   UNL     1      26.205   4.760   6.589  1.00  0.00     0.309 HD
ATOM     12  H   UNL     1      26.700   6.373   5.411  1.00  0.00     0.256 HD
ATOM     13  H   UNL     1      27.286   6.150   3.868  1.00  0.00     0.256 HD
ATOM     14  H   UNL     1      28.283   4.298   3.282  1.00  0.00     0.267 HD
ENDBRANCH   1   7
BRANCH   4  15
ATOM     15  C   UNL     1      27.972  -1.934   3.848  1.00  0.00     0.335 C 
ATOM     16  O   UNL     1      28.955  -2.580   3.529  1.00  0.00    -0.246 OA
BRANCH  15  17
ATOM     17  O   UNL     1      26.838  -2.496   4.317  1.00  0.00    -0.478 OA
ATOM     18  H   UNL     1      26.804  -2.600   5.284  1.00  0.00     0.297 HD
ENDBRANCH  15  17
ENDBRANCH   4  15
TORSDOF 3
ENDMDL
MODEL 18
REMARK VINA RESULT:    -5.754      2.672      3.532
REMARK INTER + INTRA:          -6.777
REMARK INTER:                  -6.599
REMARK INTRA:                  -0.178
REMARK UNBOUND:                -0.182
REMARK SMILES [H]/[N+]=C(\N)Nc1ccc(C(=O)O)cc1
REMARK SMILES IDX 6 1 7 2 8 3 9 4 13 5 14 6 5 7 2 8 3 9 4 10 1 11 10 15 11 16
REMARK SMILES IDX 12 17
REMARK H PARENT 4 12 4 13 5 14 12 18
ROOT
ATOM      1  C   UNL     1      26.305   0.656   4.824  1.00  0.00     0.099 A 
ATOM      2  C   UNL     1      25.859   1.312   3.664  1.00  0.00     0.044 A 
ATOM      3  C   UNL     1      26.170   2.658   3.423  1.00  0.00     0.019 A 
ATOM      4  C   UNL     1      26.945   3.369   4.344  1.00  0.00     0.060 A 
ATOM      5  C   UNL     1      27.356   2.746   5.522  1.00  0.00     0.019 A 
ATOM      6  C   UNL     1      27.043   1.402   5.749  1.00  0.00     0.044 A 
ENDROOT
BRANCH   1   7
ATOM      7  N   UNL     1      26.082  -0.727   4.950  1.00  0.00    -0.243 N 
ATOM      8  N   UNL     1      27.989  -1.653   3.890  1.00  0.00    -0.129 N 
ATOM      9  C   UNL     1      26.894  -1.747   4.556  1.00  0.00     0.379 C 
ATOM     10  N   UNL     1      26.418  -2.966   4.911  1.00  0.00    -0.288 N 
ATOM     11  H   UNL     1      28.402  -2.574   3.736  1.00  0.00     0.309 HD
ATOM     12  H   UNL     1      26.863  -3.744   4.440  1.00  0.00     0.256 HD
ATOM     13  H   UNL     1      25.411  -3.061   4.884  1.00  0.00     0.256 HD
ATOM     14  H   UNL     1      25.272  -0.970   5.497  1.00  0.00     0.267 HD
ENDBRANCH   1   7
BRANCH   4  15
ATOM     15  C   UNL     1      27.342   4.783   4.130  1.00  0.00     0.335 C 
ATOM     16  O   UNL     1      27.273   5.633   5.001  1.00  0.00    -0.246 OA
BRANCH  15  17
ATOM     17  O   UNL     1      27.833   5.028   2.896  1.00  0.00    -0.478 OA
ATOM     18  H   UNL     1      28.767   4.779   2.773  1.00  0.00     0.297 HD
ENDBRANCH  15  17
ENDBRANCH   4  15
TORSDOF 3
ENDMDL
MODEL 19
REMARK VINA RESULT:    -5.729      4.617      6.240
REMARK INTER + INTRA:          -6.749
REMARK INTER:                  -6.578
REMARK INTRA:                  -0.171
REMARK UNBOUND:                -0.182
REMARK SMILES [H]/[N+]=C(\N)Nc1ccc(C(=O)O)cc1
REMARK SMILES IDX 6 1 7 2 8 3 9 4 13 5 14 6 5 7 2 8 3 9 4 10 1 11 10 15 11 16
REMARK SMILES IDX 12 17
REMARK H PARENT 4 12 4 13 5 14 12 18
ROOT
ATOM      1  C   UNL     1      26.813   2.449   5.530  1.00  0.00     0.099 A 
ATOM      2  C   UNL     1      27.904   1.675   5.962  1.00  0.00     0.044 A 
ATOM      3  C   UNL     1      27.974   0.301   5.693  1.00  0.00     0.019 A 
ATOM      4  C   UNL     1      26.950  -0.321   4.972  1.00  0.00     0.060 A 
ATOM      5  C   UNL     1      25.839   0.424   4.576  1.00  0.00     0.019 A 
ATOM      6  C   UNL     1      25.782   1.794   4.848  1.00  0.00     0.044 A 
ENDROOT
BRANCH   1   7
ATOM      7  N   UNL     1      26.858   3.844   5.707  1.00  0.00    -0.243 N 
ATOM      8  N   UNL     1      27.815   4.590   3.670  1.00  0.00    -0.129 N 
ATOM      9  C   UNL     1      27.275   4.789   4.819  1.00  0.00     0.379 C 
ATOM     10  N   UNL     1      27.100   6.054   5.277  1.00  0.00    -0.288 N 
ATOM     11  H   UNL     1      28.023   5.475   3.207  1.00  0.00     0.309 HD
ATOM     12  H   UNL     1      27.605   6.762   4.757  1.00  0.00     0.256 HD
ATOM     13  H   UNL     1      27.238   6.176   6.272  1.00  0.00     0.256 HD
ATOM     14  H   UNL     1      26.423   4.169   6.555  1.00  0.00     0.267 HD
ENDBRANCH   1   7
BRANCH   4  15
ATOM     15  C   UNL     1      26.983  -1.762   4.620  1.00  0.00     0.335 C 
ATOM     16  O   UNL     1      27.563  -2.195   3.639  1.00  0.00    -0.246 OA
BRANCH  15  17
ATOM     17  O   UNL     1      26.354  -2.554   5.515  1.00  0.00    -0.478 OA
ATOM     18  H   UNL     1      25.605  -3.061   5.154  1.00  0.00     0.297 HD
ENDBRANCH  15  17
ENDBRANCH   4  15
TORSDOF 3
ENDMDL
MODEL 20
REMARK VINA RESULT:    -5.727      4.951      6.481
REMARK INTER + INTRA:          -6.746
REMARK INTER:                  -6.574
REMARK INTRA:                  -0.172
REMARK UNBOUND:                -0.182
REMARK SMILES [H]/[N+]=C(\N)Nc1ccc(C(=O)O)cc1
REMARK SMILES IDX 6 1 7 2 8 3 9 4 13 5 14 6 5 7 2 8 3 9 4 10 1 11 10 15 11 16
REMARK SMILES IDX 12 17
REMARK H PARENT 4 12 4 13 5 14 12 18
ROOT
ATOM      1  C   UNL     1      25.178   1.938   4.062  1.00  0.00     0.099 A 
ATOM      2  C   UNL     1      25.052   0.775   4.841  1.00  0.00     0.044 A 
ATOM      3  C   UNL     1      26.002  -0.254   4.773  1.00  0.00     0.019 A 
ATOM      4  C   UNL     1      27.106  -0.129   3.925  1.00  0.00     0.060 A 
ATOM      5  C   UNL     1      27.221   0.998   3.111  1.00  0.00     0.019 A 
ATOM      6  C   UNL     1      26.269   2.020   3.190  1.00  0.00     0.044 A 
ENDROOT
BRANCH   1   7
ATOM      7  N   UNL     1      24.274   2.995   4.268  1.00  0.00    -0.243 N 
ATOM      8  N   UNL     1      25.309   4.223   6.012  1.00  0.00    -0.129 N 
ATOM      9  C   UNL     1      24.391   4.043   5.131  1.00  0.00     0.379 C 
ATOM     10  N   UNL     1      23.378   4.937   5.012  1.00  0.00    -0.288 N 
ATOM     11  H   UNL     1      25.162   5.096   6.518  1.00  0.00     0.309 HD
ATOM     12  H   UNL     1      23.305   5.592   5.781  1.00  0.00     0.256 HD
ATOM     13  H   UNL     1      22.474   4.539   4.795  1.00  0.00     0.256 HD
ATOM     14  H   UNL     1      23.508   3.021   3.614  1.00  0.00     0.267 HD
ENDBRANCH   1   7
BRANCH   4  15
ATOM     15  C   UNL     1      28.167  -1.163   3.836  1.00  0.00     0.335 C 
ATOM     16  O   UNL     1      28.063  -2.165   3.150  1.00  0.00    -0.246 OA
BRANCH  15  17
ATOM     17  O   UNL     1      29.276  -0.864   4.545  1.00  0.00    -0.478 OA
ATOM     18  H   UNL     1      30.090  -1.296   4.230  1.00  0.00     0.297 HD
ENDBRANCH  15  17
ENDBRANCH   4  15
TORSDOF 3
ENDMDL
