REMARK SMILES C[C@]12CCC(=O)C[C@@H]1CC[C@@H]1[C@@H]2CC[C@]2(C)[C@H](O)CC[C@@H]12
REMARK SMILES IDX 1 1 2 2 3 3 4 4 5 5 6 6 7 7 8 8 9 9 10 10 11 11 12 12 13 13
REMARK SMILES IDX 14 14 15 15 16 16 17 17 19 18 20 19 21 20 18 21
REMARK H PARENT 18 22
ROOT
ATOM      1  C   UNL     1       1.656   4.164   1.057  1.00  0.00     0.012 C 
ATOM      2  C   UNL     1       0.663   4.354  -0.116  1.00  0.00    -0.026 C 
ATOM      3  C   UNL     1      -0.256   3.085  -0.192  1.00  0.00     0.015 C 
ATOM      4  C   UNL     1      -0.057   2.220  -1.432  1.00  0.00     0.076 C 
ATOM      5  C   UNL     1       1.410   2.047  -1.715  1.00  0.00     0.133 C 
ATOM      6  O   UNL     1       1.917   0.940  -1.863  1.00  0.00    -0.300 OA
ATOM      7  C   UNL     1       2.224   3.314  -1.886  1.00  0.00     0.079 C 
ATOM      8  C   UNL     1       1.407   4.541  -1.478  1.00  0.00     0.002 C 
ATOM      9  C   UNL     1       2.266   5.810  -1.498  1.00  0.00     0.005 C 
ATOM     10  C   UNL     1       1.390   7.046  -1.322  1.00  0.00     0.004 C 
ATOM     11  C   UNL     1       0.508   6.980  -0.071  1.00  0.00    -0.004 C 
ATOM     12  C   UNL     1      -0.228   5.615   0.113  1.00  0.00    -0.001 C 
ATOM     13  C   UNL     1      -0.992   5.630   1.461  1.00  0.00     0.005 C 
ATOM     14  C   UNL     1      -2.052   6.748   1.479  1.00  0.00     0.010 C 
ATOM     15  C   UNL     1      -1.419   8.126   1.206  1.00  0.00    -0.003 C 
ATOM     16  C   UNL     1      -0.575   8.548   2.446  1.00  0.00     0.014 C 
ATOM     17  C   UNL     1      -2.370   9.288   0.830  1.00  0.00     0.120 C 
ATOM     18  C   UNL     1      -1.414  10.322   0.200  1.00  0.00     0.032 C 
ATOM     19  C   UNL     1      -0.277   9.502  -0.449  1.00  0.00     0.007 C 
ATOM     20  C   UNL     1      -0.601   8.048  -0.105  1.00  0.00     0.001 C 
ENDROOT
BRANCH  17  21
ATOM     21  O   UNL     1      -3.319   8.953  -0.182  1.00  0.00    -0.393 OA
ATOM     22  H   UNL     1      -3.674   8.068  -0.014  1.00  0.00     0.210 HD
ENDBRANCH  17  21
TORSDOF 1
