MODEL 1
REMARK VINA RESULT:   -10.034      0.000      0.000
REMARK INTER + INTRA:         -10.328
REMARK INTER:                 -10.328
REMARK INTRA:                   0.000
REMARK UNBOUND:                 0.000
REMARK SMILES C[C@]12CCC(=O)C[C@@H]1CC[C@@H]1[C@@H]2CC[C@]2(C)[C@H](O)CC[C@@H]12
REMARK SMILES IDX 1 1 2 2 3 3 4 4 5 5 6 6 7 7 8 8 9 9 10 10 11 11 12 12 13 13
REMARK SMILES IDX 14 14 15 15 16 16 17 17 19 18 20 19 21 20 18 21
REMARK H PARENT 18 22
ROOT
ATOM      1  C   UNL     1      25.605   4.002   6.737  1.00  0.00     0.012 C 
ATOM      2  C   UNL     1      25.823   3.949   5.205  1.00  0.00    -0.026 C 
ATOM      3  C   UNL     1      26.498   5.293   4.759  1.00  0.00     0.015 C 
ATOM      4  C   UNL     1      25.626   6.194   3.891  1.00  0.00     0.076 C 
ATOM      5  C   UNL     1      24.230   6.256   4.445  1.00  0.00     0.133 C 
ATOM      6  O   UNL     1      23.672   7.323   4.682  1.00  0.00    -0.300 OA
ATOM      7  C   UNL     1      23.510   4.935   4.628  1.00  0.00     0.079 C 
ATOM      8  C   UNL     1      24.475   3.763   4.436  1.00  0.00     0.002 C 
ATOM      9  C   UNL     1      23.798   2.429   4.769  1.00  0.00     0.005 C 
ATOM     10  C   UNL     1      24.688   1.264   4.350  1.00  0.00     0.004 C 
ATOM     11  C   UNL     1      26.099   1.346   4.942  1.00  0.00    -0.004 C 
ATOM     12  C   UNL     1      26.755   2.758   4.820  1.00  0.00    -0.001 C 
ATOM     13  C   UNL     1      28.122   2.745   5.550  1.00  0.00     0.005 C 
ATOM     14  C   UNL     1      29.077   1.720   4.909  1.00  0.00     0.010 C 
ATOM     15  C   UNL     1      28.461   0.308   4.900  1.00  0.00    -0.003 C 
ATOM     16  C   UNL     1      28.433  -0.239   6.359  1.00  0.00     0.014 C 
ATOM     17  C   UNL     1      29.115  -0.752   3.981  1.00  0.00     0.120 C 
ATOM     18  C   UNL     1      28.019  -1.833   3.871  1.00  0.00     0.032 C 
ATOM     19  C   UNL     1      26.675  -1.082   3.996  1.00  0.00     0.007 C 
ATOM     20  C   UNL     1      27.065   0.377   4.235  1.00  0.00     0.001 C 
ENDROOT
BRANCH  17  21
ATOM     21  O   UNL     1      29.358  -0.293   2.652  1.00  0.00    -0.393 OA
ATOM     22  H   UNL     1      30.286  -0.031   2.563  1.00  0.00     0.210 HD
ENDBRANCH  17  21
TORSDOF 1
ENDMDL
MODEL 2
REMARK VINA RESULT:    -9.193      0.762      0.762
REMARK INTER + INTRA:          -9.461
REMARK INTER:                  -9.461
REMARK INTRA:                   0.000
REMARK UNBOUND:                 0.000
REMARK SMILES C[C@]12CCC(=O)C[C@@H]1CC[C@@H]1[C@@H]2CC[C@]2(C)[C@H](O)CC[C@@H]12
REMARK SMILES IDX 1 1 2 2 3 3 4 4 5 5 6 6 7 7 8 8 9 9 10 10 11 11 12 12 13 13
REMARK SMILES IDX 14 14 15 15 16 16 17 17 19 18 20 19 21 20 18 21
REMARK H PARENT 18 22
ROOT
ATOM      1  C   UNL     1      25.039   3.629   6.910  1.00  0.00     0.012 C 
ATOM      2  C   UNL     1      25.701   3.947   5.547  1.00  0.00    -0.026 C 
ATOM      3  C   UNL     1      26.597   5.223   5.721  1.00  0.00     0.015 C 
ATOM      4  C   UNL     1      26.110   6.458   4.970  1.00  0.00     0.076 C 
ATOM      5  C   UNL     1      24.623   6.612   5.133  1.00  0.00     0.133 C 
ATOM      6  O   UNL     1      24.117   7.657   5.527  1.00  0.00    -0.300 OA
ATOM      7  C   UNL     1      23.767   5.434   4.712  1.00  0.00     0.079 C 
ATOM      8  C   UNL     1      24.635   4.206   4.433  1.00  0.00     0.002 C 
ATOM      9  C   UNL     1      23.774   2.969   4.158  1.00  0.00     0.005 C 
ATOM     10  C   UNL     1      24.641   1.820   3.653  1.00  0.00     0.004 C 
ATOM     11  C   UNL     1      25.810   1.498   4.590  1.00  0.00    -0.004 C 
ATOM     12  C   UNL     1      26.596   2.757   5.077  1.00  0.00    -0.001 C 
ATOM     13  C   UNL     1      27.673   2.316   6.099  1.00  0.00     0.005 C 
ATOM     14  C   UNL     1      28.681   1.347   5.451  1.00  0.00     0.010 C 
ATOM     15  C   UNL     1      27.972   0.116   4.855  1.00  0.00    -0.003 C 
ATOM     16  C   UNL     1      27.459  -0.784   6.018  1.00  0.00     0.014 C 
ATOM     17  C   UNL     1      28.775  -0.760   3.862  1.00  0.00     0.120 C 
ATOM     18  C   UNL     1      27.671  -1.567   3.148  1.00  0.00     0.032 C 
ATOM     19  C   UNL     1      26.424  -0.655   3.139  1.00  0.00     0.007 C 
ATOM     20  C   UNL     1      26.853   0.599   3.902  1.00  0.00     0.001 C 
ENDROOT
BRANCH  17  21
ATOM     21  O   UNL     1      29.446  -0.015   2.847  1.00  0.00    -0.393 OA
ATOM     22  H   UNL     1      30.403  -0.129   2.939  1.00  0.00     0.210 HD
ENDBRANCH  17  21
TORSDOF 1
ENDMDL
MODEL 3
REMARK VINA RESULT:    -8.923      1.676      2.942
REMARK INTER + INTRA:          -9.184
REMARK INTER:                  -9.184
REMARK INTRA:                   0.000
REMARK UNBOUND:                 0.000
REMARK SMILES C[C@]12CCC(=O)C[C@@H]1CC[C@@H]1[C@@H]2CC[C@]2(C)[C@H](O)CC[C@@H]12
REMARK SMILES IDX 1 1 2 2 3 3 4 4 5 5 6 6 7 7 8 8 9 9 10 10 11 11 12 12 13 13
REMARK SMILES IDX 14 14 15 15 16 16 17 17 19 18 20 19 21 20 18 21
REMARK H PARENT 18 22
ROOT
ATOM      1  C   UNL     1      26.848   5.170   3.002  1.00  0.00     0.012 C 
ATOM      2  C   UNL     1      25.986   4.647   4.177  1.00  0.00    -0.026 C 
ATOM      3  C   UNL     1      24.494   5.047   3.909  1.00  0.00     0.015 C 
ATOM      4  C   UNL     1      23.920   6.077   4.877  1.00  0.00     0.076 C 
ATOM      5  C   UNL     1      24.915   7.179   5.113  1.00  0.00     0.133 C 
ATOM      6  O   UNL     1      24.623   8.361   4.966  1.00  0.00    -0.300 OA
ATOM      7  C   UNL     1      26.283   6.765   5.618  1.00  0.00     0.079 C 
ATOM      8  C   UNL     1      26.449   5.246   5.545  1.00  0.00     0.002 C 
ATOM      9  C   UNL     1      27.879   4.827   5.905  1.00  0.00     0.005 C 
ATOM     10  C   UNL     1      27.965   3.312   6.057  1.00  0.00     0.004 C 
ATOM     11  C   UNL     1      27.448   2.558   4.828  1.00  0.00    -0.004 C 
ATOM     12  C   UNL     1      26.085   3.092   4.285  1.00  0.00    -0.001 C 
ATOM     13  C   UNL     1      25.725   2.331   2.984  1.00  0.00     0.005 C 
ATOM     14  C   UNL     1      25.570   0.822   3.256  1.00  0.00     0.010 C 
ATOM     15  C   UNL     1      26.845   0.232   3.888  1.00  0.00    -0.003 C 
ATOM     16  C   UNL     1      27.968   0.187   2.810  1.00  0.00     0.014 C 
ATOM     17  C   UNL     1      26.735  -1.162   4.553  1.00  0.00     0.120 C 
ATOM     18  C   UNL     1      27.995  -1.219   5.440  1.00  0.00     0.032 C 
ATOM     19  C   UNL     1      28.283   0.241   5.856  1.00  0.00     0.007 C 
ATOM     20  C   UNL     1      27.215   1.067   5.137  1.00  0.00     0.001 C 
ENDROOT
BRANCH  17  21
ATOM     21  O   UNL     1      25.620  -1.295   5.434  1.00  0.00    -0.393 OA
ATOM     22  H   UNL     1      25.345  -0.419   5.744  1.00  0.00     0.210 HD
ENDBRANCH  17  21
TORSDOF 1
ENDMDL
MODEL 4
REMARK VINA RESULT:    -8.867      0.947      1.035
REMARK INTER + INTRA:          -9.126
REMARK INTER:                  -9.126
REMARK INTRA:                   0.000
REMARK UNBOUND:                 0.000
REMARK SMILES C[C@]12CCC(=O)C[C@@H]1CC[C@@H]1[C@@H]2CC[C@]2(C)[C@H](O)CC[C@@H]12
REMARK SMILES IDX 1 1 2 2 3 3 4 4 5 5 6 6 7 7 8 8 9 9 10 10 11 11 12 12 13 13
REMARK SMILES IDX 14 14 15 15 16 16 17 17 19 18 20 19 21 20 18 21
REMARK H PARENT 18 22
ROOT
ATOM      1  C   UNL     1      25.352   3.496   6.793  1.00  0.00     0.012 C 
ATOM      2  C   UNL     1      26.185   3.758   5.515  1.00  0.00    -0.026 C 
ATOM      3  C   UNL     1      27.193   4.922   5.816  1.00  0.00     0.015 C 
ATOM      4  C   UNL     1      26.928   6.216   5.053  1.00  0.00     0.076 C 
ATOM      5  C   UNL     1      25.458   6.534   5.065  1.00  0.00     0.133 C 
ATOM      6  O   UNL     1      25.033   7.624   5.434  1.00  0.00    -0.300 OA
ATOM      7  C   UNL     1      24.526   5.468   4.526  1.00  0.00     0.079 C 
ATOM      8  C   UNL     1      25.278   4.154   4.305  1.00  0.00     0.002 C 
ATOM      9  C   UNL     1      24.319   3.027   3.908  1.00  0.00     0.005 C 
ATOM     10  C   UNL     1      25.102   1.796   3.464  1.00  0.00     0.004 C 
ATOM     11  C   UNL     1      26.123   1.329   4.507  1.00  0.00    -0.004 C 
ATOM     12  C   UNL     1      26.987   2.483   5.107  1.00  0.00    -0.001 C 
ATOM     13  C   UNL     1      27.895   1.906   6.222  1.00  0.00     0.005 C 
ATOM     14  C   UNL     1      28.853   0.841   5.655  1.00  0.00     0.010 C 
ATOM     15  C   UNL     1      28.079  -0.293   4.955  1.00  0.00    -0.003 C 
ATOM     16  C   UNL     1      27.349  -1.147   6.034  1.00  0.00     0.014 C 
ATOM     17  C   UNL     1      28.880  -1.238   4.027  1.00  0.00     0.120 C 
ATOM     18  C   UNL     1      27.775  -1.904   3.181  1.00  0.00     0.032 C 
ATOM     19  C   UNL     1      26.644  -0.857   3.068  1.00  0.00     0.007 C 
ATOM     20  C   UNL     1      27.127   0.328   3.905  1.00  0.00     0.001 C 
ENDROOT
BRANCH  17  21
ATOM     21  O   UNL     1      29.732  -0.558   3.107  1.00  0.00    -0.393 OA
ATOM     22  H   UNL     1      30.653  -0.640   3.395  1.00  0.00     0.210 HD
ENDBRANCH  17  21
TORSDOF 1
ENDMDL
MODEL 5
REMARK VINA RESULT:    -8.602      1.686      2.959
REMARK INTER + INTRA:          -8.854
REMARK INTER:                  -8.854
REMARK INTRA:                   0.000
REMARK UNBOUND:                 0.000
REMARK SMILES C[C@]12CCC(=O)C[C@@H]1CC[C@@H]1[C@@H]2CC[C@]2(C)[C@H](O)CC[C@@H]12
REMARK SMILES IDX 1 1 2 2 3 3 4 4 5 5 6 6 7 7 8 8 9 9 10 10 11 11 12 12 13 13
REMARK SMILES IDX 14 14 15 15 16 16 17 17 19 18 20 19 21 20 18 21
REMARK H PARENT 18 22
ROOT
ATOM      1  C   UNL     1      27.103   4.957   2.938  1.00  0.00     0.012 C 
ATOM      2  C   UNL     1      26.242   4.468   4.128  1.00  0.00    -0.026 C 
ATOM      3  C   UNL     1      24.765   4.940   3.892  1.00  0.00     0.015 C 
ATOM      4  C   UNL     1      24.260   5.990   4.876  1.00  0.00     0.076 C 
ATOM      5  C   UNL     1      25.310   7.043   5.096  1.00  0.00     0.133 C 
ATOM      6  O   UNL     1      25.071   8.239   4.960  1.00  0.00    -0.300 OA
ATOM      7  C   UNL     1      26.666   6.562   5.572  1.00  0.00     0.079 C 
ATOM      8  C   UNL     1      26.760   5.038   5.489  1.00  0.00     0.002 C 
ATOM      9  C   UNL     1      28.175   4.551   5.818  1.00  0.00     0.005 C 
ATOM     10  C   UNL     1      28.192   3.032   5.962  1.00  0.00     0.004 C 
ATOM     11  C   UNL     1      27.616   2.310   4.740  1.00  0.00    -0.004 C 
ATOM     12  C   UNL     1      26.269   2.911   4.227  1.00  0.00    -0.001 C 
ATOM     13  C   UNL     1      25.848   2.174   2.931  1.00  0.00     0.005 C 
ATOM     14  C   UNL     1      25.627   0.673   3.199  1.00  0.00     0.010 C 
ATOM     15  C   UNL     1      26.886   0.019   3.803  1.00  0.00    -0.003 C 
ATOM     16  C   UNL     1      27.984  -0.072   2.701  1.00  0.00     0.014 C 
ATOM     17  C   UNL     1      26.723  -1.371   4.463  1.00  0.00     0.120 C 
ATOM     18  C   UNL     1      27.997  -1.492   5.325  1.00  0.00     0.032 C 
ATOM     19  C   UNL     1      28.361  -0.049   5.741  1.00  0.00     0.007 C 
ATOM     20  C   UNL     1      27.320   0.830   5.047  1.00  0.00     0.001 C 
ENDROOT
BRANCH  17  21
ATOM     21  O   UNL     1      25.621  -1.456   5.366  1.00  0.00    -0.393 OA
ATOM     22  H   UNL     1      24.894  -0.904   5.044  1.00  0.00     0.210 HD
ENDBRANCH  17  21
TORSDOF 1
ENDMDL
MODEL 6
REMARK VINA RESULT:    -8.040      1.551      6.125
REMARK INTER + INTRA:          -8.275
REMARK INTER:                  -8.275
REMARK INTRA:                   0.000
REMARK UNBOUND:                 0.000
REMARK SMILES C[C@]12CCC(=O)C[C@@H]1CC[C@@H]1[C@@H]2CC[C@]2(C)[C@H](O)CC[C@@H]12
REMARK SMILES IDX 1 1 2 2 3 3 4 4 5 5 6 6 7 7 8 8 9 9 10 10 11 11 12 12 13 13
REMARK SMILES IDX 14 14 15 15 16 16 17 17 19 18 20 19 21 20 18 21
REMARK H PARENT 18 22
ROOT
ATOM      1  C   UNL     1      26.496   1.060   2.541  1.00  0.00     0.012 C 
ATOM      2  C   UNL     1      26.672   1.339   4.054  1.00  0.00    -0.026 C 
ATOM      3  C   UNL     1      28.093   0.830   4.485  1.00  0.00     0.015 C 
ATOM      4  C   UNL     1      28.088  -0.368   5.428  1.00  0.00     0.076 C 
ATOM      5  C   UNL     1      27.083  -1.388   4.969  1.00  0.00     0.133 C 
ATOM      6  O   UNL     1      27.384  -2.564   4.793  1.00  0.00    -0.300 OA
ATOM      7  C   UNL     1      25.654  -0.909   4.805  1.00  0.00     0.079 C 
ATOM      8  C   UNL     1      25.580   0.615   4.906  1.00  0.00     0.002 C 
ATOM      9  C   UNL     1      24.169   1.123   4.589  1.00  0.00     0.005 C 
ATOM     10  C   UNL     1      24.052   2.607   4.923  1.00  0.00     0.004 C 
ATOM     11  C   UNL     1      25.127   3.459   4.240  1.00  0.00    -0.004 C 
ATOM     12  C   UNL     1      26.568   2.868   4.350  1.00  0.00    -0.001 C 
ATOM     13  C   UNL     1      27.541   3.752   3.531  1.00  0.00     0.005 C 
ATOM     14  C   UNL     1      27.574   5.190   4.085  1.00  0.00     0.010 C 
ATOM     15  C   UNL     1      26.167   5.817   4.103  1.00  0.00    -0.003 C 
ATOM     16  C   UNL     1      25.727   6.112   2.637  1.00  0.00     0.014 C 
ATOM     17  C   UNL     1      25.964   7.094   4.952  1.00  0.00     0.120 C 
ATOM     18  C   UNL     1      24.431   7.160   5.110  1.00  0.00     0.032 C 
ATOM     19  C   UNL     1      23.943   5.694   5.092  1.00  0.00     0.007 C 
ATOM     20  C   UNL     1      25.208   4.867   4.860  1.00  0.00     0.001 C 
ENDROOT
BRANCH  17  21
ATOM     21  O   UNL     1      26.498   7.001   6.273  1.00  0.00    -0.393 OA
ATOM     22  H   UNL     1      25.786   6.798   6.897  1.00  0.00     0.210 HD
ENDBRANCH  17  21
TORSDOF 1
ENDMDL
MODEL 7
REMARK VINA RESULT:    -7.468      1.377      6.443
REMARK INTER + INTRA:          -7.687
REMARK INTER:                  -7.687
REMARK INTRA:                   0.000
REMARK UNBOUND:                 0.000
REMARK SMILES C[C@]12CCC(=O)C[C@@H]1CC[C@@H]1[C@@H]2CC[C@]2(C)[C@H](O)CC[C@@H]12
REMARK SMILES IDX 1 1 2 2 3 3 4 4 5 5 6 6 7 7 8 8 9 9 10 10 11 11 12 12 13 13
REMARK SMILES IDX 14 14 15 15 16 16 17 17 19 18 20 19 21 20 18 21
REMARK H PARENT 18 22
ROOT
ATOM      1  C   UNL     1      27.817  -0.081   6.211  1.00  0.00     0.012 C 
ATOM      2  C   UNL     1      27.185   0.012   4.800  1.00  0.00    -0.026 C 
ATOM      3  C   UNL     1      26.552  -1.381   4.454  1.00  0.00     0.015 C 
ATOM      4  C   UNL     1      27.239  -2.136   3.321  1.00  0.00     0.076 C 
ATOM      5  C   UNL     1      28.733  -2.059   3.477  1.00  0.00     0.133 C 
ATOM      6  O   UNL     1      29.439  -3.062   3.478  1.00  0.00    -0.300 OA
ATOM      7  C   UNL     1      29.339  -0.672   3.557  1.00  0.00     0.079 C 
ATOM      8  C   UNL     1      28.246   0.387   3.715  1.00  0.00     0.002 C 
ATOM      9  C   UNL     1      28.850   1.775   3.953  1.00  0.00     0.005 C 
ATOM     10  C   UNL     1      27.766   2.845   3.872  1.00  0.00     0.004 C 
ATOM     11  C   UNL     1      26.587   2.574   4.811  1.00  0.00    -0.004 C 
ATOM     12  C   UNL     1      26.068   1.101   4.766  1.00  0.00    -0.001 C 
ATOM     13  C   UNL     1      24.959   0.923   5.833  1.00  0.00     0.005 C 
ATOM     14  C   UNL     1      23.767   1.857   5.547  1.00  0.00     0.010 C 
ATOM     15  C   UNL     1      24.212   3.330   5.477  1.00  0.00    -0.003 C 
ATOM     16  C   UNL     1      24.582   3.814   6.911  1.00  0.00     0.014 C 
ATOM     17  C   UNL     1      23.228   4.345   4.846  1.00  0.00     0.120 C 
ATOM     18  C   UNL     1      24.138   5.550   4.527  1.00  0.00     0.032 C 
ATOM     19  C   UNL     1      25.533   4.956   4.234  1.00  0.00     0.007 C 
ATOM     20  C   UNL     1      25.372   3.453   4.461  1.00  0.00     0.001 C 
ENDROOT
BRANCH  17  21
ATOM     21  O   UNL     1      22.679   3.918   3.600  1.00  0.00    -0.393 OA
ATOM     22  H   UNL     1      23.348   4.000   2.905  1.00  0.00     0.210 HD
ENDBRANCH  17  21
TORSDOF 1
ENDMDL
MODEL 8
REMARK VINA RESULT:    -7.451      1.373      1.716
REMARK INTER + INTRA:          -7.669
REMARK INTER:                  -7.669
REMARK INTRA:                   0.000
REMARK UNBOUND:                 0.000
REMARK SMILES C[C@]12CCC(=O)C[C@@H]1CC[C@@H]1[C@@H]2CC[C@]2(C)[C@H](O)CC[C@@H]12
REMARK SMILES IDX 1 1 2 2 3 3 4 4 5 5 6 6 7 7 8 8 9 9 10 10 11 11 12 12 13 13
REMARK SMILES IDX 14 14 15 15 16 16 17 17 19 18 20 19 21 20 18 21
REMARK H PARENT 18 22
ROOT
ATOM      1  C   UNL     1      24.528   3.815   5.827  1.00  0.00     0.012 C 
ATOM      2  C   UNL     1      25.951   4.060   5.268  1.00  0.00    -0.026 C 
ATOM      3  C   UNL     1      26.696   5.045   6.235  1.00  0.00     0.015 C 
ATOM      4  C   UNL     1      26.996   6.420   5.647  1.00  0.00     0.076 C 
ATOM      5  C   UNL     1      25.799   6.937   4.897  1.00  0.00     0.133 C 
ATOM      6  O   UNL     1      25.318   8.042   5.124  1.00  0.00    -0.300 OA
ATOM      7  C   UNL     1      25.257   6.056   3.789  1.00  0.00     0.079 C 
ATOM      8  C   UNL     1      25.909   4.673   3.830  1.00  0.00     0.002 C 
ATOM      9  C   UNL     1      25.260   3.724   2.816  1.00  0.00     0.005 C 
ATOM     10  C   UNL     1      26.069   2.436   2.703  1.00  0.00     0.004 C 
ATOM     11  C   UNL     1      26.294   1.751   4.054  1.00  0.00    -0.004 C 
ATOM     12  C   UNL     1      26.752   2.722   5.188  1.00  0.00    -0.001 C 
ATOM     13  C   UNL     1      26.835   1.939   6.522  1.00  0.00     0.005 C 
ATOM     14  C   UNL     1      27.868   0.799   6.426  1.00  0.00     0.010 C 
ATOM     15  C   UNL     1      27.542  -0.157   5.262  1.00  0.00    -0.003 C 
ATOM     16  C   UNL     1      26.275  -0.985   5.630  1.00  0.00     0.014 C 
ATOM     17  C   UNL     1      28.657  -1.127   4.801  1.00  0.00     0.120 C 
ATOM     18  C   UNL     1      28.172  -1.563   3.403  1.00  0.00     0.032 C 
ATOM     19  C   UNL     1      27.377  -0.364   2.840  1.00  0.00     0.007 C 
ATOM     20  C   UNL     1      27.389   0.672   3.965  1.00  0.00     0.001 C 
ENDROOT
BRANCH  17  21
ATOM     21  O   UNL     1      29.924  -0.500   4.607  1.00  0.00    -0.393 OA
ATOM     22  H   UNL     1      29.926   0.369   5.035  1.00  0.00     0.210 HD
ENDBRANCH  17  21
TORSDOF 1
ENDMDL
MODEL 9
REMARK VINA RESULT:    -7.345      1.283      6.381
REMARK INTER + INTRA:          -7.559
REMARK INTER:                  -7.559
REMARK INTRA:                   0.000
REMARK UNBOUND:                 0.000
REMARK SMILES C[C@]12CCC(=O)C[C@@H]1CC[C@@H]1[C@@H]2CC[C@]2(C)[C@H](O)CC[C@@H]12
REMARK SMILES IDX 1 1 2 2 3 3 4 4 5 5 6 6 7 7 8 8 9 9 10 10 11 11 12 12 13 13
REMARK SMILES IDX 14 14 15 15 16 16 17 17 19 18 20 19 21 20 18 21
REMARK H PARENT 18 22
ROOT
ATOM      1  C   UNL     1      26.119  -0.303   5.424  1.00  0.00     0.012 C 
ATOM      2  C   UNL     1      26.945   0.541   4.423  1.00  0.00    -0.026 C 
ATOM      3  C   UNL     1      26.905  -0.175   3.027  1.00  0.00     0.015 C 
ATOM      4  C   UNL     1      28.240  -0.744   2.557  1.00  0.00     0.076 C 
ATOM      5  C   UNL     1      28.933  -1.448   3.692  1.00  0.00     0.133 C 
ATOM      6  O   UNL     1      29.336  -2.602   3.591  1.00  0.00    -0.300 OA
ATOM      7  C   UNL     1      29.180  -0.635   4.947  1.00  0.00     0.079 C 
ATOM      8  C   UNL     1      28.430   0.697   4.886  1.00  0.00     0.002 C 
ATOM      9  C   UNL     1      28.545   1.458   6.211  1.00  0.00     0.005 C 
ATOM     10  C   UNL     1      28.000   2.874   6.057  1.00  0.00     0.004 C 
ATOM     11  C   UNL     1      26.570   2.908   5.509  1.00  0.00    -0.004 C 
ATOM     12  C   UNL     1      26.342   1.973   4.278  1.00  0.00    -0.001 C 
ATOM     13  C   UNL     1      24.843   2.007   3.888  1.00  0.00     0.005 C 
ATOM     14  C   UNL     1      24.411   3.431   3.490  1.00  0.00     0.010 C 
ATOM     15  C   UNL     1      24.694   4.440   4.620  1.00  0.00    -0.003 C 
ATOM     16  C   UNL     1      23.695   4.182   5.788  1.00  0.00     0.014 C 
ATOM     17  C   UNL     1      24.663   5.945   4.259  1.00  0.00     0.120 C 
ATOM     18  C   UNL     1      25.413   6.595   5.440  1.00  0.00     0.032 C 
ATOM     19  C   UNL     1      26.436   5.541   5.919  1.00  0.00     0.007 C 
ATOM     20  C   UNL     1      26.179   4.320   5.035  1.00  0.00     0.001 C 
ENDROOT
BRANCH  17  21
ATOM     21  O   UNL     1      25.405   6.272   3.085  1.00  0.00    -0.393 OA
ATOM     22  H   UNL     1      26.253   5.804   3.095  1.00  0.00     0.210 HD
ENDBRANCH  17  21
TORSDOF 1
ENDMDL
