REMARK SMILES CC(C)(C)NC(=O)[C@@H]1CC[C@@H]2[C@H]3CC[C@@H]4NC(=O)C=C[C@@]4(C)[C@@H]3CC[C@]21C
REMARK SMILES IDX 5 1 6 2 7 3 2 5 1 6 3 7 4 8 8 9 9 10 26 11 10 12 25 13 11 14
REMARK SMILES IDX 24 15 12 16 23 17 13 18 21 19 14 20 20 21 15 22 19 23 16 24
REMARK SMILES IDX 17 25 18 26 27 27 22 28
REMARK H PARENT 5 4 16 29
ROOT
ATOM      1  N   UNL     1       3.553   0.474   0.922  1.00  0.00    -0.351 N 
ATOM      2  C   UNL     1       3.503  -0.606   0.071  1.00  0.00     0.224 C 
ATOM      3  O   UNL     1       4.443  -0.992  -0.613  1.00  0.00    -0.275 OA
ATOM      4  H   UNL     1       2.868   0.511   1.664  1.00  0.00     0.163 HD
ENDROOT
BRANCH   1   5
ATOM      5  C   UNL     1       4.685   1.392   1.005  1.00  0.00     0.032 C 
ATOM      6  C   UNL     1       4.940   2.035  -0.371  1.00  0.00     0.034 C 
ATOM      7  C   UNL     1       5.933   0.674   1.531  1.00  0.00     0.034 C 
ATOM      8  C   UNL     1       4.302   2.507   2.000  1.00  0.00     0.034 C 
ENDBRANCH   1   5
BRANCH   2   9
ATOM      9  C   UNL     1       2.143  -1.265   0.054  1.00  0.00     0.084 C 
ATOM     10  C   UNL     1       2.123  -2.554  -0.833  1.00  0.00     0.014 C 
ATOM     11  C   UNL     1       0.977  -0.407  -0.526  1.00  0.00    -0.018 C 
ATOM     12  C   UNL     1       0.741  -2.593  -1.511  1.00  0.00     0.005 C 
ATOM     13  C   UNL     1       0.393   0.771   0.308  1.00  0.00     0.008 C 
ATOM     14  C   UNL     1      -0.018  -1.585  -0.677  1.00  0.00    -0.001 C 
ATOM     15  C   UNL     1      -1.068   0.721   0.782  1.00  0.00     0.005 C 
ATOM     16  C   UNL     1      -1.417  -1.103  -1.006  1.00  0.00    -0.003 C 
ATOM     17  C   UNL     1      -1.907  -0.473   0.325  1.00  0.00     0.004 C 
ATOM     18  C   UNL     1      -2.374  -2.182  -1.560  1.00  0.00     0.006 C 
ATOM     19  C   UNL     1      -3.449  -0.344   0.364  1.00  0.00     0.009 C 
ATOM     20  C   UNL     1      -3.356  -2.792  -0.554  1.00  0.00     0.026 C 
ATOM     21  C   UNL     1      -3.989   0.402   1.572  1.00  0.00    -0.012 C 
ATOM     22  C   UNL     1      -3.905  -1.835   0.517  1.00  0.00     0.092 C 
ATOM     23  C   UNL     1      -5.107   0.016   2.197  1.00  0.00     0.067 C 
ATOM     24  N   UNL     1      -5.327  -1.927   0.752  1.00  0.00    -0.349 N 
ATOM     25  C   UNL     1      -5.896  -1.155   1.737  1.00  0.00     0.243 C 
ATOM     26  O   UNL     1      -6.988  -1.417   2.220  1.00  0.00    -0.270 OA
ATOM     27  C   UNL     1       1.434   0.224  -1.881  1.00  0.00     0.012 C 
ATOM     28  C   UNL     1      -4.050   0.340  -0.891  1.00  0.00     0.018 C 
ATOM     29  H   UNL     1      -5.818  -2.798   0.588  1.00  0.00     0.164 HD
ENDBRANCH   2   9
TORSDOF 2
