MODEL 1
REMARK VINA RESULT:    -5.737      0.000      0.000
REMARK INTER + INTRA:          -5.288
REMARK INTER:                  -6.408
REMARK INTRA:                   1.120
REMARK UNBOUND:                 1.120
REMARK SMILES CC(C)(C)NC(=O)[C@@H]1CC[C@@H]2[C@H]3CC[C@@H]4NC(=O)C=C[C@@]4(C)[C@@H]3CC[C@]21C
REMARK SMILES IDX 5 1 6 2 7 3 2 5 1 6 3 7 4 8 8 9 9 10 26 11 10 12 25 13 11 14
REMARK SMILES IDX 24 15 12 16 23 17 13 18 21 19 14 20 20 21 15 22 19 23 16 24
REMARK SMILES IDX 17 25 18 26 27 27 22 28
REMARK H PARENT 5 4 16 29
ROOT
ATOM      1  N   UNL     1      28.557  -0.490   4.032  1.00  0.00    -0.351 N 
ATOM      2  C   UNL     1      27.707  -0.748   5.082  1.00  0.00     0.224 C 
ATOM      3  O   UNL     1      27.773  -1.740   5.799  1.00  0.00    -0.275 OA
ATOM      4  H   UNL     1      28.636   0.470   3.726  1.00  0.00     0.163 HD
ENDROOT
BRANCH   1   5
ATOM      5  C   UNL     1      29.551  -1.438   3.539  1.00  0.00     0.032 C 
ATOM      6  C   UNL     1      28.874  -2.780   3.201  1.00  0.00     0.034 C 
ATOM      7  C   UNL     1      30.684  -1.620   4.555  1.00  0.00     0.034 C 
ATOM      8  C   UNL     1      30.143  -0.852   2.241  1.00  0.00     0.034 C 
ENDBRANCH   1   5
BRANCH   2   9
ATOM      9  C   UNL     1      26.656   0.325   5.252  1.00  0.00     0.084 C 
ATOM     10  C   UNL     1      25.204  -0.249   5.152  1.00  0.00     0.014 C 
ATOM     11  C   UNL     1      26.669   1.466   4.189  1.00  0.00    -0.018 C 
ATOM     12  C   UNL     1      24.361   0.824   4.440  1.00  0.00     0.005 C 
ATOM     13  C   UNL     1      27.784   2.553   4.232  1.00  0.00     0.008 C 
ATOM     14  C   UNL     1      25.271   2.027   4.550  1.00  0.00    -0.001 C 
ATOM     15  C   UNL     1      27.410   4.020   4.498  1.00  0.00     0.005 C 
ATOM     16  C   UNL     1      25.001   3.353   3.867  1.00  0.00    -0.003 C 
ATOM     17  C   UNL     1      25.922   4.346   4.624  1.00  0.00     0.004 C 
ATOM     18  C   UNL     1      23.520   3.792   3.839  1.00  0.00     0.006 C 
ATOM     19  C   UNL     1      25.473   5.813   4.419  1.00  0.00     0.009 C 
ATOM     20  C   UNL     1      23.101   4.817   4.897  1.00  0.00     0.026 C 
ATOM     21  C   UNL     1      26.415   6.850   5.007  1.00  0.00    -0.012 C 
ATOM     22  C   UNL     1      24.152   5.879   5.260  1.00  0.00     0.092 C 
ATOM     23  C   UNL     1      25.961   7.953   5.611  1.00  0.00     0.067 C 
ATOM     24  N   UNL     1      23.654   7.232   5.348  1.00  0.00    -0.349 N 
ATOM     25  C   UNL     1      24.508   8.239   5.729  1.00  0.00     0.243 C 
ATOM     26  O   UNL     1      24.102   9.312   6.152  1.00  0.00    -0.270 OA
ATOM     27  C   UNL     1      26.757   0.832   2.763  1.00  0.00     0.012 C 
ATOM     28  C   UNL     1      25.255   6.197   2.932  1.00  0.00     0.018 C 
ATOM     29  H   UNL     1      22.688   7.406   5.598  1.00  0.00     0.164 HD
ENDBRANCH   2   9
TORSDOF 2
ENDMDL
MODEL 2
REMARK VINA RESULT:    -4.430      1.621      7.798
REMARK INTER + INTRA:          -3.828
REMARK INTER:                  -4.272
REMARK INTRA:                   0.444
REMARK UNBOUND:                 1.120
REMARK SMILES CC(C)(C)NC(=O)[C@@H]1CC[C@@H]2[C@H]3CC[C@@H]4NC(=O)C=C[C@@]4(C)[C@@H]3CC[C@]21C
REMARK SMILES IDX 5 1 6 2 7 3 2 5 1 6 3 7 4 8 8 9 9 10 26 11 10 12 25 13 11 14
REMARK SMILES IDX 24 15 12 16 23 17 13 18 21 19 14 20 20 21 15 22 19 23 16 24
REMARK SMILES IDX 17 25 18 26 27 27 22 28
REMARK H PARENT 5 4 16 29
ROOT
ATOM      1  N   UNL     1      25.481   6.177   4.467  1.00  0.00    -0.351 N 
ATOM      2  C   UNL     1      24.290   5.510   4.298  1.00  0.00     0.224 C 
ATOM      3  O   UNL     1      23.190   6.048   4.299  1.00  0.00    -0.275 OA
ATOM      4  H   UNL     1      26.318   5.723   4.129  1.00  0.00     0.163 HD
ENDROOT
BRANCH   1   5
ATOM      5  C   UNL     1      25.579   7.589   4.823  1.00  0.00     0.032 C 
ATOM      6  C   UNL     1      24.542   7.928   5.911  1.00  0.00     0.034 C 
ATOM      7  C   UNL     1      25.407   8.478   3.586  1.00  0.00     0.034 C 
ATOM      8  C   UNL     1      26.989   7.822   5.405  1.00  0.00     0.034 C 
ENDBRANCH   1   5
BRANCH   2   9
ATOM      9  C   UNL     1      24.482   4.021   4.125  1.00  0.00     0.084 C 
ATOM     10  C   UNL     1      23.142   3.230   4.293  1.00  0.00     0.014 C 
ATOM     11  C   UNL     1      25.439   3.334   5.147  1.00  0.00    -0.018 C 
ATOM     12  C   UNL     1      23.504   1.908   4.996  1.00  0.00     0.005 C 
ATOM     13  C   UNL     1      26.978   3.544   5.029  1.00  0.00     0.008 C 
ATOM     14  C   UNL     1      25.005   1.885   4.813  1.00  0.00    -0.001 C 
ATOM     15  C   UNL     1      27.891   2.345   4.724  1.00  0.00     0.005 C 
ATOM     16  C   UNL     1      25.916   0.860   5.458  1.00  0.00    -0.003 C 
ATOM     17  C   UNL     1      27.228   0.970   4.636  1.00  0.00     0.004 C 
ATOM     18  C   UNL     1      25.353  -0.578   5.520  1.00  0.00     0.006 C 
ATOM     19  C   UNL     1      28.117  -0.285   4.805  1.00  0.00     0.009 C 
ATOM     20  C   UNL     1      25.853  -1.544   4.440  1.00  0.00     0.026 C 
ATOM     21  C   UNL     1      29.484  -0.182   4.150  1.00  0.00    -0.012 C 
ATOM     22  C   UNL     1      27.318  -1.370   4.006  1.00  0.00     0.092 C 
ATOM     23  C   UNL     1      30.045  -1.222   3.522  1.00  0.00     0.067 C 
ATOM     24  N   UNL     1      28.072  -2.596   3.887  1.00  0.00    -0.349 N 
ATOM     25  C   UNL     1      29.372  -2.544   3.443  1.00  0.00     0.243 C 
ATOM     26  O   UNL     1      29.947  -3.526   2.996  1.00  0.00    -0.270 OA
ATOM     27  C   UNL     1      25.062   3.800   6.591  1.00  0.00     0.012 C 
ATOM     28  C   UNL     1      28.357  -0.686   6.283  1.00  0.00     0.018 C 
ATOM     29  H   UNL     1      27.604  -3.466   3.663  1.00  0.00     0.164 HD
ENDBRANCH   2   9
TORSDOF 2
ENDMDL
MODEL 3
REMARK VINA RESULT:    -3.685      1.951      8.187
REMARK INTER + INTRA:          -2.996
REMARK INTER:                  -3.817
REMARK INTRA:                   0.820
REMARK UNBOUND:                 1.120
REMARK SMILES CC(C)(C)NC(=O)[C@@H]1CC[C@@H]2[C@H]3CC[C@@H]4NC(=O)C=C[C@@]4(C)[C@@H]3CC[C@]21C
REMARK SMILES IDX 5 1 6 2 7 3 2 5 1 6 3 7 4 8 8 9 9 10 26 11 10 12 25 13 11 14
REMARK SMILES IDX 24 15 12 16 23 17 13 18 21 19 14 20 20 21 15 22 19 23 16 24
REMARK SMILES IDX 17 25 18 26 27 27 22 28
REMARK H PARENT 5 4 16 29
ROOT
ATOM      1  N   UNL     1      25.358   6.480   4.911  1.00  0.00    -0.351 N 
ATOM      2  C   UNL     1      24.737   5.297   5.239  1.00  0.00     0.224 C 
ATOM      3  O   UNL     1      23.523   5.152   5.317  1.00  0.00    -0.275 OA
ATOM      4  H   UNL     1      26.302   6.424   4.556  1.00  0.00     0.163 HD
ENDROOT
BRANCH   1   5
ATOM      5  C   UNL     1      24.658   7.753   4.765  1.00  0.00     0.032 C 
ATOM      6  C   UNL     1      24.328   8.332   6.153  1.00  0.00     0.034 C 
ATOM      7  C   UNL     1      23.398   7.587   3.909  1.00  0.00     0.034 C 
ATOM      8  C   UNL     1      25.617   8.726   4.047  1.00  0.00     0.034 C 
ENDBRANCH   1   5
BRANCH   2   9
ATOM      9  C   UNL     1      25.722   4.184   5.514  1.00  0.00     0.084 C 
ATOM     10  C   UNL     1      26.747   4.566   6.632  1.00  0.00     0.014 C 
ATOM     11  C   UNL     1      26.630   3.767   4.316  1.00  0.00    -0.018 C 
ATOM     12  C   UNL     1      28.090   3.933   6.226  1.00  0.00     0.005 C 
ATOM     13  C   UNL     1      26.030   2.942   3.140  1.00  0.00     0.008 C 
ATOM     14  C   UNL     1      27.637   2.952   5.166  1.00  0.00    -0.001 C 
ATOM     15  C   UNL     1      26.541   1.519   2.866  1.00  0.00     0.005 C 
ATOM     16  C   UNL     1      28.588   2.151   4.300  1.00  0.00    -0.003 C 
ATOM     17  C   UNL     1      27.695   1.015   3.734  1.00  0.00     0.004 C 
ATOM     18  C   UNL     1      29.856   1.632   5.015  1.00  0.00     0.006 C 
ATOM     19  C   UNL     1      28.540  -0.173   3.214  1.00  0.00     0.009 C 
ATOM     20  C   UNL     1      29.823   0.169   5.468  1.00  0.00     0.026 C 
ATOM     21  C   UNL     1      27.740  -1.255   2.509  1.00  0.00    -0.012 C 
ATOM     22  C   UNL     1      29.078  -0.807   4.542  1.00  0.00     0.092 C 
ATOM     23  C   UNL     1      28.020  -2.554   2.665  1.00  0.00     0.067 C 
ATOM     24  N   UNL     1      29.760  -2.055   4.288  1.00  0.00    -0.349 N 
ATOM     25  C   UNL     1      29.141  -3.015   3.523  1.00  0.00     0.243 C 
ATOM     26  O   UNL     1      29.482  -4.188   3.550  1.00  0.00    -0.270 OA
ATOM     27  C   UNL     1      27.234   5.052   3.663  1.00  0.00     0.012 C 
ATOM     28  C   UNL     1      29.677   0.246   2.246  1.00  0.00     0.018 C 
ATOM     29  H   UNL     1      30.400  -2.437   4.974  1.00  0.00     0.164 HD
ENDBRANCH   2   9
TORSDOF 2
ENDMDL
MODEL 4
REMARK VINA RESULT:    -3.156      1.799      8.607
REMARK INTER + INTRA:          -2.406
REMARK INTER:                  -3.135
REMARK INTRA:                   0.729
REMARK UNBOUND:                 1.120
REMARK SMILES CC(C)(C)NC(=O)[C@@H]1CC[C@@H]2[C@H]3CC[C@@H]4NC(=O)C=C[C@@]4(C)[C@@H]3CC[C@]21C
REMARK SMILES IDX 5 1 6 2 7 3 2 5 1 6 3 7 4 8 8 9 9 10 26 11 10 12 25 13 11 14
REMARK SMILES IDX 24 15 12 16 23 17 13 18 21 19 14 20 20 21 15 22 19 23 16 24
REMARK SMILES IDX 17 25 18 26 27 27 22 28
REMARK H PARENT 5 4 16 29
ROOT
ATOM      1  N   UNL     1      24.316   9.164   7.263  1.00  0.00    -0.351 N 
ATOM      2  C   UNL     1      24.046   8.436   6.127  1.00  0.00     0.224 C 
ATOM      3  O   UNL     1      23.112   8.661   5.366  1.00  0.00    -0.275 OA
ATOM      4  H   UNL     1      25.258   9.121   7.627  1.00  0.00     0.163 HD
ENDROOT
BRANCH   1   5
ATOM      5  C   UNL     1      23.437  10.202   7.791  1.00  0.00     0.032 C 
ATOM      6  C   UNL     1      22.001   9.660   7.914  1.00  0.00     0.034 C 
ATOM      7  C   UNL     1      23.491  11.460   6.917  1.00  0.00     0.034 C 
ATOM      8  C   UNL     1      23.944  10.561   9.203  1.00  0.00     0.034 C 
ENDBRANCH   1   5
BRANCH   2   9
ATOM      9  C   UNL     1      25.024   7.302   5.922  1.00  0.00     0.084 C 
ATOM     10  C   UNL     1      26.471   7.817   5.624  1.00  0.00     0.014 C 
ATOM     11  C   UNL     1      24.723   6.351   4.723  1.00  0.00    -0.018 C 
ATOM     12  C   UNL     1      27.080   6.836   4.605  1.00  0.00     0.005 C 
ATOM     13  C   UNL     1      23.557   5.324   4.822  1.00  0.00     0.008 C 
ATOM     14  C   UNL     1      26.117   5.675   4.712  1.00  0.00    -0.001 C 
ATOM     15  C   UNL     1      23.860   3.818   4.785  1.00  0.00     0.005 C 
ATOM     16  C   UNL     1      26.151   4.466   3.797  1.00  0.00    -0.003 C 
ATOM     17  C   UNL     1      25.316   3.406   4.563  1.00  0.00     0.004 C 
ATOM     18  C   UNL     1      27.562   3.970   3.410  1.00  0.00     0.006 C 
ATOM     19  C   UNL     1      25.604   1.973   4.055  1.00  0.00     0.009 C 
ATOM     20  C   UNL     1      28.093   2.768   4.199  1.00  0.00     0.026 C 
ATOM     21  C   UNL     1      24.713   0.900   4.655  1.00  0.00    -0.012 C 
ATOM     22  C   UNL     1      27.050   1.711   4.598  1.00  0.00     0.092 C 
ATOM     23  C   UNL     1      25.187  -0.307   4.985  1.00  0.00     0.067 C 
ATOM     24  N   UNL     1      27.451   0.340   4.381  1.00  0.00    -0.349 N 
ATOM     25  C   UNL     1      26.609  -0.675   4.768  1.00  0.00     0.243 C 
ATOM     26  O   UNL     1      27.004  -1.820   4.936  1.00  0.00    -0.270 OA
ATOM     27  C   UNL     1      24.418   7.211   3.454  1.00  0.00     0.012 C 
ATOM     28  C   UNL     1      25.508   1.826   2.514  1.00  0.00     0.018 C 
ATOM     29  H   UNL     1      28.431   0.083   4.406  1.00  0.00     0.164 HD
ENDBRANCH   2   9
TORSDOF 2
ENDMDL
MODEL 5
REMARK VINA RESULT:    -3.040      1.747      7.830
REMARK INTER + INTRA:          -2.276
REMARK INTER:                  -2.570
REMARK INTRA:                   0.294
REMARK UNBOUND:                 1.120
REMARK SMILES CC(C)(C)NC(=O)[C@@H]1CC[C@@H]2[C@H]3CC[C@@H]4NC(=O)C=C[C@@]4(C)[C@@H]3CC[C@]21C
REMARK SMILES IDX 5 1 6 2 7 3 2 5 1 6 3 7 4 8 8 9 9 10 26 11 10 12 25 13 11 14
REMARK SMILES IDX 24 15 12 16 23 17 13 18 21 19 14 20 20 21 15 22 19 23 16 24
REMARK SMILES IDX 17 25 18 26 27 27 22 28
REMARK H PARENT 5 4 16 29
ROOT
ATOM      1  N   UNL     1      25.625   5.927   4.475  1.00  0.00    -0.351 N 
ATOM      2  C   UNL     1      24.484   5.165   4.376  1.00  0.00     0.224 C 
ATOM      3  O   UNL     1      23.346   5.608   4.473  1.00  0.00    -0.275 OA
ATOM      4  H   UNL     1      26.469   5.553   4.064  1.00  0.00     0.163 HD
ENDROOT
BRANCH   1   5
ATOM      5  C   UNL     1      25.632   7.335   4.862  1.00  0.00     0.032 C 
ATOM      6  C   UNL     1      24.591   7.578   5.971  1.00  0.00     0.034 C 
ATOM      7  C   UNL     1      25.383   8.236   3.648  1.00  0.00     0.034 C 
ATOM      8  C   UNL     1      27.031   7.649   5.431  1.00  0.00     0.034 C 
ENDBRANCH   1   5
BRANCH   2   9
ATOM      9  C   UNL     1      24.785   3.702   4.149  1.00  0.00     0.084 C 
ATOM     10  C   UNL     1      23.484   2.833   4.093  1.00  0.00     0.014 C 
ATOM     11  C   UNL     1      25.641   3.003   5.249  1.00  0.00    -0.018 C 
ATOM     12  C   UNL     1      23.829   1.491   4.763  1.00  0.00     0.005 C 
ATOM     13  C   UNL     1      27.166   3.299   5.349  1.00  0.00     0.008 C 
ATOM     14  C   UNL     1      25.340   1.557   4.781  1.00  0.00    -0.001 C 
ATOM     15  C   UNL     1      28.181   2.171   5.103  1.00  0.00     0.005 C 
ATOM     16  C   UNL     1      26.219   0.542   5.484  1.00  0.00    -0.003 C 
ATOM     17  C   UNL     1      27.618   0.771   4.851  1.00  0.00     0.004 C 
ATOM     18  C   UNL     1      25.740  -0.924   5.391  1.00  0.00     0.006 C 
ATOM     19  C   UNL     1      28.551  -0.445   5.068  1.00  0.00     0.009 C 
ATOM     20  C   UNL     1      26.432  -1.793   4.336  1.00  0.00     0.026 C 
ATOM     21  C   UNL     1      29.982  -0.230   4.608  1.00  0.00    -0.012 C 
ATOM     22  C   UNL     1      27.928  -1.518   4.111  1.00  0.00     0.092 C 
ATOM     23  C   UNL     1      30.681  -1.199   4.004  1.00  0.00     0.067 C 
ATOM     24  N   UNL     1      28.763  -2.693   4.027  1.00  0.00    -0.349 N 
ATOM     25  C   UNL     1      30.104  -2.546   3.763  1.00  0.00     0.243 C 
ATOM     26  O   UNL     1      30.790  -3.467   3.344  1.00  0.00    -0.270 OA
ATOM     27  C   UNL     1      25.052   3.357   6.653  1.00  0.00     0.012 C 
ATOM     28  C   UNL     1      28.620  -0.924   6.541  1.00  0.00     0.018 C 
ATOM     29  H   UNL     1      28.380  -3.570   3.695  1.00  0.00     0.164 HD
ENDBRANCH   2   9
TORSDOF 2
ENDMDL
MODEL 6
REMARK VINA RESULT:    -2.968      1.683      8.081
REMARK INTER + INTRA:          -2.195
REMARK INTER:                  -2.157
REMARK INTRA:                  -0.038
REMARK UNBOUND:                 1.120
REMARK SMILES CC(C)(C)NC(=O)[C@@H]1CC[C@@H]2[C@H]3CC[C@@H]4NC(=O)C=C[C@@]4(C)[C@@H]3CC[C@]21C
REMARK SMILES IDX 5 1 6 2 7 3 2 5 1 6 3 7 4 8 8 9 9 10 26 11 10 12 25 13 11 14
REMARK SMILES IDX 24 15 12 16 23 17 13 18 21 19 14 20 20 21 15 22 19 23 16 24
REMARK SMILES IDX 17 25 18 26 27 27 22 28
REMARK H PARENT 5 4 16 29
ROOT
ATOM      1  N   UNL     1      24.779   6.701   5.136  1.00  0.00    -0.351 N 
ATOM      2  C   UNL     1      26.013   6.137   4.904  1.00  0.00     0.224 C 
ATOM      3  O   UNL     1      27.078   6.732   5.013  1.00  0.00    -0.275 OA
ATOM      4  H   UNL     1      24.014   6.074   5.342  1.00  0.00     0.163 HD
ENDROOT
BRANCH   1   5
ATOM      5  C   UNL     1      24.571   8.124   5.392  1.00  0.00     0.032 C 
ATOM      6  C   UNL     1      25.157   8.955   4.236  1.00  0.00     0.034 C 
ATOM      7  C   UNL     1      25.176   8.530   6.740  1.00  0.00     0.034 C 
ATOM      8  C   UNL     1      23.049   8.365   5.442  1.00  0.00     0.034 C 
ENDBRANCH   1   5
BRANCH   2   9
ATOM      9  C   UNL     1      25.914   4.690   4.478  1.00  0.00     0.084 C 
ATOM     10  C   UNL     1      24.435   4.252   4.216  1.00  0.00     0.014 C 
ATOM     11  C   UNL     1      26.427   3.639   5.510  1.00  0.00    -0.018 C 
ATOM     12  C   UNL     1      24.323   2.793   4.696  1.00  0.00     0.005 C 
ATOM     13  C   UNL     1      27.957   3.464   5.742  1.00  0.00     0.008 C 
ATOM     14  C   UNL     1      25.783   2.415   4.813  1.00  0.00    -0.001 C 
ATOM     15  C   UNL     1      28.635   2.131   5.390  1.00  0.00     0.005 C 
ATOM     16  C   UNL     1      26.270   1.107   5.406  1.00  0.00    -0.003 C 
ATOM     17  C   UNL     1      27.732   0.999   4.898  1.00  0.00     0.004 C 
ATOM     18  C   UNL     1      25.412  -0.132   5.066  1.00  0.00     0.006 C 
ATOM     19  C   UNL     1      28.262  -0.452   4.984  1.00  0.00     0.009 C 
ATOM     20  C   UNL     1      25.935  -1.023   3.935  1.00  0.00     0.026 C 
ATOM     21  C   UNL     1      29.735  -0.607   4.646  1.00  0.00    -0.012 C 
ATOM     22  C   UNL     1      27.463  -1.168   3.842  1.00  0.00     0.092 C 
ATOM     23  C   UNL     1      30.192  -1.651   3.946  1.00  0.00     0.067 C 
ATOM     24  N   UNL     1      27.941  -2.514   3.631  1.00  0.00    -0.349 N 
ATOM     25  C   UNL     1      29.289  -2.730   3.472  1.00  0.00     0.243 C 
ATOM     26  O   UNL     1      29.729  -3.750   2.960  1.00  0.00    -0.270 OA
ATOM     27  C   UNL     1      25.824   3.968   6.914  1.00  0.00     0.012 C 
ATOM     28  C   UNL     1      28.049  -1.114   6.370  1.00  0.00     0.018 C 
ATOM     29  H   UNL     1      27.364  -3.193   3.149  1.00  0.00     0.164 HD
ENDBRANCH   2   9
TORSDOF 2
ENDMDL
MODEL 7
REMARK VINA RESULT:    -2.912      1.586      2.552
REMARK INTER + INTRA:          -2.132
REMARK INTER:                  -2.354
REMARK INTRA:                   0.222
REMARK UNBOUND:                 1.120
REMARK SMILES CC(C)(C)NC(=O)[C@@H]1CC[C@@H]2[C@H]3CC[C@@H]4NC(=O)C=C[C@@]4(C)[C@@H]3CC[C@]21C
REMARK SMILES IDX 5 1 6 2 7 3 2 5 1 6 3 7 4 8 8 9 9 10 26 11 10 12 25 13 11 14
REMARK SMILES IDX 24 15 12 16 23 17 13 18 21 19 14 20 20 21 15 22 19 23 16 24
REMARK SMILES IDX 17 25 18 26 27 27 22 28
REMARK H PARENT 5 4 16 29
ROOT
ATOM      1  N   UNL     1      29.861  -1.455   4.066  1.00  0.00    -0.351 N 
ATOM      2  C   UNL     1      28.845  -0.728   3.489  1.00  0.00     0.224 C 
ATOM      3  O   UNL     1      28.230  -1.074   2.488  1.00  0.00    -0.275 OA
ATOM      4  H   UNL     1      30.071  -1.267   5.037  1.00  0.00     0.163 HD
ENDROOT
BRANCH   1   5
ATOM      5  C   UNL     1      30.440  -2.657   3.473  1.00  0.00     0.032 C 
ATOM      6  C   UNL     1      31.209  -2.289   2.190  1.00  0.00     0.034 C 
ATOM      7  C   UNL     1      29.357  -3.707   3.199  1.00  0.00     0.034 C 
ATOM      8  C   UNL     1      31.442  -3.237   4.492  1.00  0.00     0.034 C 
ENDBRANCH   1   5
BRANCH   2   9
ATOM      9  C   UNL     1      28.576   0.568   4.218  1.00  0.00     0.084 C 
ATOM     10  C   UNL     1      29.029   0.508   5.715  1.00  0.00     0.014 C 
ATOM     11  C   UNL     1      27.081   1.001   4.308  1.00  0.00    -0.018 C 
ATOM     12  C   UNL     1      27.995   1.322   6.514  1.00  0.00     0.005 C 
ATOM     13  C   UNL     1      26.360   1.564   3.048  1.00  0.00     0.008 C 
ATOM     14  C   UNL     1      27.300   2.076   5.402  1.00  0.00    -0.001 C 
ATOM     15  C   UNL     1      25.854   3.015   3.041  1.00  0.00     0.005 C 
ATOM     16  C   UNL     1      26.065   2.931   5.609  1.00  0.00    -0.003 C 
ATOM     17  C   UNL     1      26.017   3.815   4.334  1.00  0.00     0.004 C 
ATOM     18  C   UNL     1      26.039   3.748   6.920  1.00  0.00     0.006 C 
ATOM     19  C   UNL     1      25.131   5.067   4.538  1.00  0.00     0.009 C 
ATOM     20  C   UNL     1      26.434   5.224   6.802  1.00  0.00     0.026 C 
ATOM     21  C   UNL     1      24.916   5.899   3.286  1.00  0.00    -0.012 C 
ATOM     22  C   UNL     1      26.001   5.936   5.510  1.00  0.00     0.092 C 
ATOM     23  C   UNL     1      24.898   7.236   3.322  1.00  0.00     0.067 C 
ATOM     24  N   UNL     1      25.428   7.249   5.695  1.00  0.00    -0.349 N 
ATOM     25  C   UNL     1      25.071   7.987   4.591  1.00  0.00     0.243 C 
ATOM     26  O   UNL     1      24.911   9.198   4.642  1.00  0.00    -0.270 OA
ATOM     27  C   UNL     1      26.223  -0.220   4.772  1.00  0.00     0.012 C 
ATOM     28  C   UNL     1      23.727   4.751   5.114  1.00  0.00     0.018 C 
ATOM     29  H   UNL     1      25.694   7.816   6.491  1.00  0.00     0.164 HD
ENDBRANCH   2   9
TORSDOF 2
ENDMDL
