MODEL 1
REMARK VINA RESULT:    -9.279      0.000      0.000
REMARK INTER + INTRA:          -9.550
REMARK INTER:                  -9.550
REMARK INTRA:                   0.000
REMARK UNBOUND:                 0.000
REMARK SMILES C[C@]12CC[C@H]3[C@@H](CCC4=CC(=O)CC[C@@]43C)[C@@H]1CC[C@H]2O
REMARK SMILES IDX 1 1 2 2 3 3 4 4 5 5 6 6 7 7 8 8 9 9 10 10 11 11 12 12 13 13
REMARK SMILES IDX 14 14 15 15 16 16 17 17 18 18 19 19 20 20 21 21
REMARK H PARENT 21 22
ROOT
ATOM      1  C   UNL     1      26.687  -1.310   5.658  1.00  0.00     0.014 C 
ATOM      2  C   UNL     1      27.695  -0.400   4.912  1.00  0.00    -0.003 C 
ATOM      3  C   UNL     1      28.439   0.491   5.937  1.00  0.00     0.010 C 
ATOM      4  C   UNL     1      27.568   1.649   6.492  1.00  0.00     0.005 C 
ATOM      5  C   UNL     1      26.810   2.460   5.390  1.00  0.00     0.002 C 
ATOM      6  C   UNL     1      25.977   1.441   4.548  1.00  0.00    -0.003 C 
ATOM      7  C   UNL     1      25.006   2.086   3.565  1.00  0.00     0.008 C 
ATOM      8  C   UNL     1      24.106   3.075   4.300  1.00  0.00     0.032 C 
ATOM      9  C   UNL     1      24.982   4.164   4.854  1.00  0.00    -0.060 C 
ATOM     10  C   UNL     1      24.837   5.415   4.372  1.00  0.00     0.047 C 
ATOM     11  C   UNL     1      25.882   6.414   4.667  1.00  0.00     0.155 C 
ATOM     12  O   UNL     1      25.652   7.605   4.523  1.00  0.00    -0.295 OA
ATOM     13  C   UNL     1      27.236   5.863   4.986  1.00  0.00     0.081 C 
ATOM     14  C   UNL     1      27.092   4.879   6.147  1.00  0.00     0.019 C 
ATOM     15  C   UNL     1      26.041   3.742   5.887  1.00  0.00    -0.008 C 
ATOM     16  C   UNL     1      25.325   3.485   7.230  1.00  0.00     0.016 C 
ATOM     17  C   UNL     1      27.038   0.558   3.888  1.00  0.00     0.001 C 
ATOM     18  C   UNL     1      26.802  -0.286   2.654  1.00  0.00     0.007 C 
ATOM     19  C   UNL     1      28.186  -0.941   2.544  1.00  0.00     0.032 C 
ATOM     20  C   UNL     1      28.545  -1.335   3.992  1.00  0.00     0.120 C 
ENDROOT
BRANCH  20  21
ATOM     21  O   UNL     1      29.933  -1.271   4.231  1.00  0.00    -0.393 OA
ATOM     22  H   UNL     1      30.077  -1.252   5.184  1.00  0.00     0.210 HD
ENDBRANCH  20  21
TORSDOF 1
ENDMDL
MODEL 2
REMARK VINA RESULT:    -8.916      1.205      1.427
REMARK INTER + INTRA:          -9.176
REMARK INTER:                  -9.176
REMARK INTRA:                   0.000
REMARK UNBOUND:                 0.000
REMARK SMILES C[C@]12CC[C@H]3[C@@H](CCC4=CC(=O)CC[C@@]43C)[C@@H]1CC[C@H]2O
REMARK SMILES IDX 1 1 2 2 3 3 4 4 5 5 6 6 7 7 8 8 9 9 10 10 11 11 12 12 13 13
REMARK SMILES IDX 14 14 15 15 16 16 17 17 18 18 19 19 20 20 21 21
REMARK H PARENT 21 22
ROOT
ATOM      1  C   UNL     1      28.434  -0.265   6.271  1.00  0.00     0.014 C 
ATOM      2  C   UNL     1      28.387   0.245   4.809  1.00  0.00    -0.003 C 
ATOM      3  C   UNL     1      29.259   1.518   4.681  1.00  0.00     0.010 C 
ATOM      4  C   UNL     1      28.603   2.779   5.306  1.00  0.00     0.005 C 
ATOM      5  C   UNL     1      27.112   2.994   4.885  1.00  0.00     0.002 C 
ATOM      6  C   UNL     1      26.333   1.685   5.231  1.00  0.00    -0.003 C 
ATOM      7  C   UNL     1      24.819   1.801   5.086  1.00  0.00     0.008 C 
ATOM      8  C   UNL     1      24.310   2.988   5.898  1.00  0.00     0.032 C 
ATOM      9  C   UNL     1      24.918   4.233   5.315  1.00  0.00    -0.060 C 
ATOM     10  C   UNL     1      24.103   5.136   4.731  1.00  0.00     0.047 C 
ATOM     11  C   UNL     1      24.700   6.190   3.888  1.00  0.00     0.155 C 
ATOM     12  O   UNL     1      24.055   7.186   3.602  1.00  0.00    -0.295 OA
ATOM     13  C   UNL     1      26.043   5.875   3.308  1.00  0.00     0.081 C 
ATOM     14  C   UNL     1      26.986   5.505   4.453  1.00  0.00     0.019 C 
ATOM     15  C   UNL     1      26.452   4.343   5.364  1.00  0.00    -0.008 C 
ATOM     16  C   UNL     1      26.862   4.690   6.810  1.00  0.00     0.016 C 
ATOM     17  C   UNL     1      26.968   0.631   4.323  1.00  0.00     0.001 C 
ATOM     18  C   UNL     1      26.311  -0.680   3.945  1.00  0.00     0.007 C 
ATOM     19  C   UNL     1      27.443  -1.277   3.097  1.00  0.00     0.032 C 
ATOM     20  C   UNL     1      28.727  -0.978   3.897  1.00  0.00     0.120 C 
ENDROOT
BRANCH  20  21
ATOM     21  O   UNL     1      29.841  -0.777   3.057  1.00  0.00    -0.393 OA
ATOM     22  H   UNL     1      30.251  -1.633   2.885  1.00  0.00     0.210 HD
ENDBRANCH  20  21
TORSDOF 1
ENDMDL
MODEL 3
REMARK VINA RESULT:    -7.947      0.933      6.200
REMARK INTER + INTRA:          -8.180
REMARK INTER:                  -8.180
REMARK INTRA:                   0.000
REMARK UNBOUND:                 0.000
REMARK SMILES C[C@]12CC[C@H]3[C@@H](CCC4=CC(=O)CC[C@@]43C)[C@@H]1CC[C@H]2O
REMARK SMILES IDX 1 1 2 2 3 3 4 4 5 5 6 6 7 7 8 8 9 9 10 10 11 11 12 12 13 13
REMARK SMILES IDX 14 14 15 15 16 16 17 17 18 18 19 19 20 20 21 21
REMARK H PARENT 21 22
ROOT
ATOM      1  C   UNL     1      24.146   4.223   6.271  1.00  0.00     0.014 C 
ATOM      2  C   UNL     1      25.055   4.411   5.030  1.00  0.00    -0.003 C 
ATOM      3  C   UNL     1      24.541   3.512   3.878  1.00  0.00     0.010 C 
ATOM      4  C   UNL     1      24.864   2.008   4.080  1.00  0.00     0.005 C 
ATOM      5  C   UNL     1      26.349   1.724   4.482  1.00  0.00     0.002 C 
ATOM      6  C   UNL     1      26.660   2.575   5.755  1.00  0.00    -0.003 C 
ATOM      7  C   UNL     1      27.998   2.253   6.411  1.00  0.00     0.008 C 
ATOM      8  C   UNL     1      28.088   0.758   6.701  1.00  0.00     0.032 C 
ATOM      9  C   UNL     1      28.044   0.036   5.382  1.00  0.00    -0.060 C 
ATOM     10  C   UNL     1      29.135  -0.652   4.987  1.00  0.00     0.047 C 
ATOM     11  C   UNL     1      29.224  -1.094   3.583  1.00  0.00     0.155 C 
ATOM     12  O   UNL     1      30.019  -1.963   3.261  1.00  0.00    -0.295 OA
ATOM     13  C   UNL     1      28.410  -0.310   2.601  1.00  0.00     0.081 C 
ATOM     14  C   UNL     1      26.956  -0.313   3.073  1.00  0.00     0.019 C 
ATOM     15  C   UNL     1      26.766   0.206   4.543  1.00  0.00    -0.008 C 
ATOM     16  C   UNL     1      25.657  -0.659   5.177  1.00  0.00     0.016 C 
ATOM     17  C   UNL     1      26.534   4.020   5.269  1.00  0.00     0.001 C 
ATOM     18  C   UNL     1      27.148   5.214   5.968  1.00  0.00     0.007 C 
ATOM     19  C   UNL     1      26.629   6.324   5.045  1.00  0.00     0.032 C 
ATOM     20  C   UNL     1      25.156   5.950   4.778  1.00  0.00     0.120 C 
ENDROOT
BRANCH  20  21
ATOM     21  O   UNL     1      24.729   6.352   3.496  1.00  0.00    -0.393 OA
ATOM     22  H   UNL     1      24.543   5.562   2.976  1.00  0.00     0.210 HD
ENDBRANCH  20  21
TORSDOF 1
ENDMDL
MODEL 4
REMARK VINA RESULT:    -7.657      1.124      1.236
REMARK INTER + INTRA:          -7.880
REMARK INTER:                  -7.880
REMARK INTRA:                   0.000
REMARK UNBOUND:                 0.000
REMARK SMILES C[C@]12CC[C@H]3[C@@H](CCC4=CC(=O)CC[C@@]43C)[C@@H]1CC[C@H]2O
REMARK SMILES IDX 1 1 2 2 3 3 4 4 5 5 6 6 7 7 8 8 9 9 10 10 11 11 12 12 13 13
REMARK SMILES IDX 14 14 15 15 16 16 17 17 18 18 19 19 20 20 21 21
REMARK H PARENT 21 22
ROOT
ATOM      1  C   UNL     1      27.321  -0.278   5.514  1.00  0.00     0.014 C 
ATOM      2  C   UNL     1      27.801   0.726   4.436  1.00  0.00    -0.003 C 
ATOM      3  C   UNL     1      28.661   1.826   5.106  1.00  0.00     0.010 C 
ATOM      4  C   UNL     1      27.825   2.854   5.914  1.00  0.00     0.005 C 
ATOM      5  C   UNL     1      26.584   3.412   5.142  1.00  0.00     0.002 C 
ATOM      6  C   UNL     1      25.732   2.187   4.677  1.00  0.00    -0.003 C 
ATOM      7  C   UNL     1      24.371   2.555   4.097  1.00  0.00     0.008 C 
ATOM      8  C   UNL     1      23.604   3.428   5.086  1.00  0.00     0.032 C 
ATOM      9  C   UNL     1      24.382   4.703   5.265  1.00  0.00    -0.060 C 
ATOM     10  C   UNL     1      23.830   5.859   4.842  1.00  0.00     0.047 C 
ATOM     11  C   UNL     1      24.689   7.052   4.720  1.00  0.00     0.155 C 
ATOM     12  O   UNL     1      24.190   8.163   4.645  1.00  0.00    -0.295 OA
ATOM     13  C   UNL     1      26.151   6.785   4.542  1.00  0.00     0.081 C 
ATOM     14  C   UNL     1      26.621   5.901   5.698  1.00  0.00     0.019 C 
ATOM     15  C   UNL     1      25.796   4.574   5.856  1.00  0.00    -0.008 C 
ATOM     16  C   UNL     1      25.661   4.316   7.371  1.00  0.00     0.016 C 
ATOM     17  C   UNL     1      26.650   1.454   3.698  1.00  0.00     0.001 C 
ATOM     18  C   UNL     1      26.173   0.472   2.649  1.00  0.00     0.007 C 
ATOM     19  C   UNL     1      27.533   0.070   2.062  1.00  0.00     0.032 C 
ATOM     20  C   UNL     1      28.445  -0.120   3.291  1.00  0.00     0.120 C 
ENDROOT
BRANCH  20  21
ATOM     21  O   UNL     1      29.787   0.214   3.013  1.00  0.00    -0.393 OA
ATOM     22  H   UNL     1      29.846   1.171   2.912  1.00  0.00     0.210 HD
ENDBRANCH  20  21
TORSDOF 1
ENDMDL
MODEL 5
REMARK VINA RESULT:    -7.008      1.662      3.139
REMARK INTER + INTRA:          -7.213
REMARK INTER:                  -7.213
REMARK INTRA:                   0.000
REMARK UNBOUND:                 0.000
REMARK SMILES C[C@]12CC[C@H]3[C@@H](CCC4=CC(=O)CC[C@@]43C)[C@@H]1CC[C@H]2O
REMARK SMILES IDX 1 1 2 2 3 3 4 4 5 5 6 6 7 7 8 8 9 9 10 10 11 11 12 12 13 13
REMARK SMILES IDX 14 14 15 15 16 16 17 17 18 18 19 19 20 20 21 21
REMARK H PARENT 21 22
ROOT
ATOM      1  C   UNL     1      28.639   0.141   3.079  1.00  0.00     0.014 C 
ATOM      2  C   UNL     1      27.354   0.149   3.945  1.00  0.00    -0.003 C 
ATOM      3  C   UNL     1      26.146   0.562   3.068  1.00  0.00     0.010 C 
ATOM      4  C   UNL     1      26.118   2.078   2.735  1.00  0.00     0.005 C 
ATOM      5  C   UNL     1      26.340   3.006   3.975  1.00  0.00     0.002 C 
ATOM      6  C   UNL     1      27.679   2.571   4.652  1.00  0.00    -0.003 C 
ATOM      7  C   UNL     1      28.159   3.513   5.750  1.00  0.00     0.008 C 
ATOM      8  C   UNL     1      28.240   4.939   5.213  1.00  0.00     0.032 C 
ATOM      9  C   UNL     1      26.848   5.360   4.830  1.00  0.00    -0.060 C 
ATOM     10  C   UNL     1      26.267   6.364   5.519  1.00  0.00     0.047 C 
ATOM     11  C   UNL     1      24.814   6.575   5.372  1.00  0.00     0.155 C 
ATOM     12  O   UNL     1      24.308   7.631   5.719  1.00  0.00    -0.295 OA
ATOM     13  C   UNL     1      24.024   5.381   4.934  1.00  0.00     0.081 C 
ATOM     14  C   UNL     1      24.625   4.862   3.628  1.00  0.00     0.019 C 
ATOM     15  C   UNL     1      26.161   4.550   3.717  1.00  0.00    -0.008 C 
ATOM     16  C   UNL     1      26.777   4.972   2.367  1.00  0.00     0.016 C 
ATOM     17  C   UNL     1      27.401   1.145   5.130  1.00  0.00     0.001 C 
ATOM     18  C   UNL     1      28.190   0.436   6.209  1.00  0.00     0.007 C 
ATOM     19  C   UNL     1      27.473  -0.921   6.177  1.00  0.00     0.032 C 
ATOM     20  C   UNL     1      27.298  -1.232   4.676  1.00  0.00     0.120 C 
ENDROOT
BRANCH  20  21
ATOM     21  O   UNL     1      26.125  -1.971   4.420  1.00  0.00    -0.393 OA
ATOM     22  H   UNL     1      25.748  -1.664   3.587  1.00  0.00     0.210 HD
ENDBRANCH  20  21
TORSDOF 1
ENDMDL
MODEL 6
REMARK VINA RESULT:    -6.485      1.149      6.239
REMARK INTER + INTRA:          -6.674
REMARK INTER:                  -6.674
REMARK INTRA:                   0.000
REMARK UNBOUND:                 0.000
REMARK SMILES C[C@]12CC[C@H]3[C@@H](CCC4=CC(=O)CC[C@@]43C)[C@@H]1CC[C@H]2O
REMARK SMILES IDX 1 1 2 2 3 3 4 4 5 5 6 6 7 7 8 8 9 9 10 10 11 11 12 12 13 13
REMARK SMILES IDX 14 14 15 15 16 16 17 17 18 18 19 19 20 20 21 21
REMARK H PARENT 21 22
ROOT
ATOM      1  C   UNL     1      24.055   5.329   5.895  1.00  0.00     0.014 C 
ATOM      2  C   UNL     1      24.949   5.340   4.630  1.00  0.00    -0.003 C 
ATOM      3  C   UNL     1      24.371   4.355   3.584  1.00  0.00     0.010 C 
ATOM      4  C   UNL     1      24.621   2.865   3.937  1.00  0.00     0.005 C 
ATOM      5  C   UNL     1      26.097   2.548   4.348  1.00  0.00     0.002 C 
ATOM      6  C   UNL     1      26.473   3.508   5.522  1.00  0.00    -0.003 C 
ATOM      7  C   UNL     1      27.805   3.187   6.191  1.00  0.00     0.008 C 
ATOM      8  C   UNL     1      27.825   1.727   6.633  1.00  0.00     0.032 C 
ATOM      9  C   UNL     1      27.720   0.876   5.398  1.00  0.00    -0.060 C 
ATOM     10  C   UNL     1      28.768   0.095   5.063  1.00  0.00     0.047 C 
ATOM     11  C   UNL     1      28.810  -0.494   3.711  1.00  0.00     0.155 C 
ATOM     12  O   UNL     1      29.554  -1.432   3.472  1.00  0.00    -0.295 OA
ATOM     13  C   UNL     1      28.020   0.226   2.664  1.00  0.00     0.081 C 
ATOM     14  C   UNL     1      26.576   0.347   3.152  1.00  0.00     0.019 C 
ATOM     15  C   UNL     1      26.438   1.024   4.561  1.00  0.00    -0.008 C 
ATOM     16  C   UNL     1      25.298   0.288   5.296  1.00  0.00     0.016 C 
ATOM     17  C   UNL     1      26.411   4.900   4.890  1.00  0.00     0.001 C 
ATOM     18  C   UNL     1      27.097   6.126   5.453  1.00  0.00     0.007 C 
ATOM     19  C   UNL     1      26.618   7.161   4.426  1.00  0.00     0.032 C 
ATOM     20  C   UNL     1      25.123   6.837   4.218  1.00  0.00     0.120 C 
ENDROOT
BRANCH  20  21
ATOM     21  O   UNL     1      24.695   7.127   2.906  1.00  0.00    -0.393 OA
ATOM     22  H   UNL     1      25.421   6.935   2.300  1.00  0.00     0.210 HD
ENDBRANCH  20  21
TORSDOF 1
ENDMDL
MODEL 7
REMARK VINA RESULT:    -6.382      1.616      6.074
REMARK INTER + INTRA:          -6.568
REMARK INTER:                  -6.568
REMARK INTRA:                   0.000
REMARK UNBOUND:                 0.000
REMARK SMILES C[C@]12CC[C@H]3[C@@H](CCC4=CC(=O)CC[C@@]43C)[C@@H]1CC[C@H]2O
REMARK SMILES IDX 1 1 2 2 3 3 4 4 5 5 6 6 7 7 8 8 9 9 10 10 11 11 12 12 13 13
REMARK SMILES IDX 14 14 15 15 16 16 17 17 18 18 19 19 20 20 21 21
REMARK H PARENT 21 22
ROOT
ATOM      1  C   UNL     1      26.586   5.688   2.768  1.00  0.00     0.014 C 
ATOM      2  C   UNL     1      26.344   5.221   4.226  1.00  0.00    -0.003 C 
ATOM      3  C   UNL     1      27.685   4.755   4.845  1.00  0.00     0.010 C 
ATOM      4  C   UNL     1      28.159   3.374   4.317  1.00  0.00     0.005 C 
ATOM      5  C   UNL     1      27.047   2.274   4.326  1.00  0.00     0.002 C 
ATOM      6  C   UNL     1      25.829   2.832   3.522  1.00  0.00    -0.003 C 
ATOM      7  C   UNL     1      24.737   1.803   3.245  1.00  0.00     0.008 C 
ATOM      8  C   UNL     1      25.341   0.575   2.570  1.00  0.00     0.032 C 
ATOM      9  C   UNL     1      26.314  -0.044   3.535  1.00  0.00    -0.060 C 
ATOM     10  C   UNL     1      26.043  -1.271   4.025  1.00  0.00     0.047 C 
ATOM     11  C   UNL     1      26.805  -1.752   5.193  1.00  0.00     0.155 C 
ATOM     12  O   UNL     1      26.817  -2.941   5.471  1.00  0.00    -0.295 OA
ATOM     13  C   UNL     1      27.404  -0.691   6.061  1.00  0.00     0.081 C 
ATOM     14  C   UNL     1      28.275   0.210   5.186  1.00  0.00     0.019 C 
ATOM     15  C   UNL     1      27.518   0.818   3.951  1.00  0.00    -0.008 C 
ATOM     16  C   UNL     1      28.523   0.834   2.781  1.00  0.00     0.016 C 
ATOM     17  C   UNL     1      25.362   4.030   4.349  1.00  0.00     0.001 C 
ATOM     18  C   UNL     1      23.982   4.647   4.259  1.00  0.00     0.007 C 
ATOM     19  C   UNL     1      24.167   5.793   5.262  1.00  0.00     0.032 C 
ATOM     20  C   UNL     1      25.561   6.371   4.939  1.00  0.00     0.120 C 
ENDROOT
BRANCH  20  21
ATOM     21  O   UNL     1      26.204   6.879   6.087  1.00  0.00    -0.393 OA
ATOM     22  H   UNL     1      25.839   6.435   6.861  1.00  0.00     0.210 HD
ENDBRANCH  20  21
TORSDOF 1
ENDMDL
