REMARK SMILES C[C@]12CC[C@H]3[C@@H](CCC4=CC(=O)CC[C@@]43C)[C@@H]1CC[C@H]2O
REMARK SMILES IDX 1 1 2 2 3 3 4 4 5 5 6 6 7 7 8 8 9 9 10 10 11 11 12 12 13 13
REMARK SMILES IDX 14 14 15 15 16 16 17 17 18 18 19 19 20 20 21 21
REMARK H PARENT 21 22
ROOT
ATOM      1  C   UNL     1       3.324  -0.468   0.195  1.00  0.00     0.014 C 
ATOM      2  C   UNL     1       2.200   0.180   1.042  1.00  0.00    -0.003 C 
ATOM      3  C   UNL     1       1.543  -0.901   1.936  1.00  0.00     0.010 C 
ATOM      4  C   UNL     1       0.611  -1.864   1.153  1.00  0.00     0.005 C 
ATOM      5  C   UNL     1      -0.397  -1.139   0.201  1.00  0.00     0.002 C 
ATOM      6  C   UNL     1       0.434  -0.215  -0.746  1.00  0.00    -0.003 C 
ATOM      7  C   UNL     1      -0.372   0.402  -1.884  1.00  0.00     0.008 C 
ATOM      8  C   UNL     1      -1.094  -0.694  -2.662  1.00  0.00     0.032 C 
ATOM      9  C   UNL     1      -2.066  -1.354  -1.723  1.00  0.00    -0.060 C 
ATOM     10  C   UNL     1      -3.386  -1.232  -1.972  1.00  0.00     0.047 C 
ATOM     11  C   UNL     1      -4.344  -1.594  -0.910  1.00  0.00     0.155 C 
ATOM     12  O   UNL     1      -5.517  -1.794  -1.183  1.00  0.00    -0.295 OA
ATOM     13  C   UNL     1      -3.815  -1.540   0.489  1.00  0.00     0.081 C 
ATOM     14  C   UNL     1      -2.570  -2.424   0.565  1.00  0.00     0.019 C 
ATOM     15  C   UNL     1      -1.469  -2.061  -0.494  1.00  0.00    -0.008 C 
ATOM     16  C   UNL     1      -0.849  -3.394  -0.962  1.00  0.00     0.016 C 
ATOM     17  C   UNL     1       1.062   0.809   0.201  1.00  0.00     0.001 C 
ATOM     18  C   UNL     1       1.592   2.160  -0.230  1.00  0.00     0.007 C 
ATOM     19  C   UNL     1       2.114   2.655   1.126  1.00  0.00     0.032 C 
ATOM     20  C   UNL     1       2.828   1.431   1.737  1.00  0.00     0.120 C 
ENDROOT
BRANCH  20  21
ATOM     21  O   UNL     1       2.740   1.413   3.144  1.00  0.00    -0.393 OA
ATOM     22  H   UNL     1       1.809   1.468   3.391  1.00  0.00     0.210 HD
ENDBRANCH  20  21
TORSDOF 1
