REMARK SMILES [H]/[N+]=C(\N)NCCc1ccc(O)cc1
REMARK SMILES IDX 7 1 6 2 5 3 2 4 3 5 4 6 1 7 8 11 9 12 14 13 10 14 13 15
REMARK SMILES IDX 11 16 12 17
REMARK H PARENT 4 8 4 9 5 10 12 18
ROOT
ATOM      1  C   UNL     1       6.146  -1.146  -1.882  1.00  0.00     0.073 C 
ENDROOT
BRANCH   1   2
ATOM      2  C   UNL     1       4.624  -1.290  -2.055  1.00  0.00     0.202 C 
BRANCH   2   3
ATOM      3  N   UNL     1       3.864  -0.666  -0.983  1.00  0.00    -0.275 N 
ATOM      4  N   UNL     1       3.819   1.460  -1.943  1.00  0.00    -0.130 N 
ATOM      5  C   UNL     1       3.536   0.644  -0.997  1.00  0.00     0.374 C 
ATOM      6  N   UNL     1       2.828   0.999   0.093  1.00  0.00    -0.288 N 
ATOM      7  H   UNL     1       3.466   2.390  -1.718  1.00  0.00     0.309 HD
ATOM      8  H   UNL     1       2.324   1.871  -0.004  1.00  0.00     0.256 HD
ATOM      9  H   UNL     1       2.210   0.265   0.417  1.00  0.00     0.256 HD
ATOM     10  H   UNL     1       3.945  -1.105  -0.076  1.00  0.00     0.260 HD
ENDBRANCH   2   3
ENDBRANCH   1   2
BRANCH   1  11
ATOM     11  C   UNL     1       6.967  -1.781  -2.997  1.00  0.00    -0.045 A 
ATOM     12  C   UNL     1       6.505  -1.833  -4.319  1.00  0.00     0.007 A 
ATOM     13  C   UNL     1       8.251  -2.276  -2.724  1.00  0.00     0.007 A 
ATOM     14  C   UNL     1       7.281  -2.391  -5.337  1.00  0.00     0.046 A 
ATOM     15  C   UNL     1       9.034  -2.829  -3.745  1.00  0.00     0.046 A 
ATOM     16  C   UNL     1       8.544  -2.882  -5.042  1.00  0.00     0.115 A 
BRANCH  16  17
ATOM     17  O   UNL     1       9.337  -3.416  -6.014  1.00  0.00    -0.508 OA
ATOM     18  H   UNL     1       8.884  -3.316  -6.866  1.00  0.00     0.293 HD
ENDBRANCH  16  17
ENDBRANCH   1  11
TORSDOF 4
