MODEL 1
REMARK VINA RESULT:    -5.270      0.000      0.000
REMARK INTER + INTRA:          -8.116
REMARK INTER:                  -7.118
REMARK INTRA:                  -0.997
REMARK UNBOUND:                -0.997
REMARK SMILES O=S(=O)(NC1CCNCC1)c1cc(S(=O)(=O)c2ccccc2)ccc1C(F)(F)F
REMARK SMILES IDX 1 1 2 2 3 3 4 4 5 6 6 7 10 8 7 9 9 10 8 11 11 13 12 14 25 15
REMARK SMILES IDX 13 16 24 17 23 18 26 19 27 20 28 21 29 22 14 23 15 24 16 25
REMARK SMILES IDX 17 26 18 27 22 28 19 29 21 30 20 31
REMARK H PARENT 4 5 8 12
ROOT
ATOM      1  O   UNL     1      24.071  -0.316   3.360  1.00  0.00    -0.207 OA
ATOM      2  S   UNL     1      25.066   0.652   2.987  1.00  0.00     0.241 S 
ATOM      3  O   UNL     1      25.570   0.744   1.635  1.00  0.00    -0.207 OA
ENDROOT
BRANCH   2   4
ATOM      4  N   UNL     1      24.402   2.185   3.333  1.00  0.00    -0.208 NA
ATOM      5  H   UNL     1      24.160   2.613   2.434  1.00  0.00     0.141 HD
BRANCH   4   6
ATOM      6  C   UNL     1      23.304   2.254   4.346  1.00  0.00     0.072 C 
ATOM      7  C   UNL     1      22.422   3.490   4.106  1.00  0.00     0.035 C 
ATOM      8  C   UNL     1      23.834   2.254   5.778  1.00  0.00     0.035 C 
ATOM      9  C   UNL     1      23.045   4.788   4.615  1.00  0.00     0.082 C 
ATOM     10  C   UNL     1      24.449   3.594   6.165  1.00  0.00     0.082 C 
ATOM     11  N   UNL     1      23.496   4.690   6.002  1.00  0.00    -0.317 NA
ATOM     12  H   UNL     1      22.696   4.544   6.619  1.00  0.00     0.122 HD
ENDBRANCH   4   6
ENDBRANCH   2   4
BRANCH   2  13
ATOM     13  C   UNL     1      26.519   0.565   4.032  1.00  0.00     0.096 A 
ATOM     14  C   UNL     1      26.920   1.811   4.571  1.00  0.00     0.043 A 
ATOM     15  C   UNL     1      27.328  -0.571   4.234  1.00  0.00     0.076 A 
ATOM     16  C   UNL     1      28.117   1.937   5.285  1.00  0.00     0.073 A 
ATOM     17  C   UNL     1      28.493  -0.414   5.039  1.00  0.00     0.016 A 
ATOM     18  C   UNL     1      28.892   0.818   5.556  1.00  0.00     0.021 A 
BRANCH  15  19
ATOM     19  C   UNL     1      27.193  -1.962   3.644  1.00  0.00     0.417 C 
ATOM     20  F   UNL     1      26.038  -2.631   3.796  1.00  0.00    -0.166 F 
ATOM     21  F   UNL     1      27.402  -1.925   2.293  1.00  0.00    -0.166 F 
ATOM     22  F   UNL     1      28.162  -2.795   4.128  1.00  0.00    -0.166 F 
ENDBRANCH  15  19
BRANCH  16  23
ATOM     23  S   UNL     1      28.644   3.536   5.867  1.00  0.00     0.206 S 
ATOM     24  O   UNL     1      28.366   3.578   7.290  1.00  0.00    -0.219 OA
ATOM     25  O   UNL     1      29.995   3.748   5.377  1.00  0.00    -0.219 OA
BRANCH  23  26
ATOM     26  C   UNL     1      27.600   4.746   5.079  1.00  0.00     0.072 A 
ATOM     27  C   UNL     1      27.159   4.532   3.769  1.00  0.00     0.021 A 
ATOM     28  C   UNL     1      27.166   5.865   5.800  1.00  0.00     0.021 A 
ATOM     29  C   UNL     1      26.303   5.452   3.168  1.00  0.00     0.001 A 
ATOM     30  C   UNL     1      26.305   6.782   5.192  1.00  0.00     0.001 A 
ATOM     31  C   UNL     1      25.877   6.576   3.879  1.00  0.00     0.000 A 
ENDBRANCH  23  26
ENDBRANCH  16  23
ENDBRANCH   2  13
TORSDOF 6
ENDMDL
MODEL 2
REMARK VINA RESULT:    -4.801      3.924      6.792
REMARK INTER + INTRA:          -7.483
REMARK INTER:                  -6.889
REMARK INTRA:                  -0.594
REMARK UNBOUND:                -0.997
REMARK SMILES O=S(=O)(NC1CCNCC1)c1cc(S(=O)(=O)c2ccccc2)ccc1C(F)(F)F
REMARK SMILES IDX 1 1 2 2 3 3 4 4 5 6 6 7 10 8 7 9 9 10 8 11 11 13 12 14 25 15
REMARK SMILES IDX 13 16 24 17 23 18 26 19 27 20 28 21 29 22 14 23 15 24 16 25
REMARK SMILES IDX 17 26 18 27 22 28 19 29 21 30 20 31
REMARK H PARENT 4 5 8 12
ROOT
ATOM      1  O   UNL     1      27.909   6.050   4.774  1.00  0.00    -0.207 OA
ATOM      2  S   UNL     1      27.400   5.085   3.837  1.00  0.00     0.241 S 
ATOM      3  O   UNL     1      27.426   5.322   2.411  1.00  0.00    -0.207 OA
ENDROOT
BRANCH   2   4
ATOM      4  N   UNL     1      28.299   3.656   4.079  1.00  0.00    -0.208 NA
ATOM      5  H   UNL     1      28.944   3.573   3.287  1.00  0.00     0.141 HD
BRANCH   4   6
ATOM      6  C   UNL     1      28.956   3.465   5.410  1.00  0.00     0.072 C 
ATOM      7  C   UNL     1      29.945   2.290   5.362  1.00  0.00     0.035 C 
ATOM      8  C   UNL     1      27.942   3.256   6.533  1.00  0.00     0.035 C 
ATOM      9  C   UNL     1      29.269   0.923   5.440  1.00  0.00     0.082 C 
ATOM     10  C   UNL     1      27.320   1.865   6.496  1.00  0.00     0.082 C 
ATOM     11  N   UNL     1      28.339   0.819   6.564  1.00  0.00    -0.317 NA
ATOM     12  H   UNL     1      28.848   0.891   7.445  1.00  0.00     0.122 HD
ENDBRANCH   4   6
ENDBRANCH   2   4
BRANCH   2  13
ATOM     13  C   UNL     1      25.715   4.604   4.210  1.00  0.00     0.096 A 
ATOM     14  C   UNL     1      25.483   3.208   4.143  1.00  0.00     0.043 A 
ATOM     15  C   UNL     1      24.630   5.478   4.419  1.00  0.00     0.076 A 
ATOM     16  C   UNL     1      24.191   2.685   4.262  1.00  0.00     0.073 A 
ATOM     17  C   UNL     1      23.345   4.896   4.619  1.00  0.00     0.016 A 
ATOM     18  C   UNL     1      23.119   3.522   4.539  1.00  0.00     0.021 A 
BRANCH  15  19
ATOM     19  C   UNL     1      24.599   6.994   4.383  1.00  0.00     0.417 C 
ATOM     20  F   UNL     1      25.598   7.686   4.954  1.00  0.00    -0.166 F 
ATOM     21  F   UNL     1      24.563   7.436   3.089  1.00  0.00    -0.166 F 
ATOM     22  F   UNL     1      23.453   7.475   4.951  1.00  0.00    -0.166 F 
ENDBRANCH  15  19
BRANCH  16  23
ATOM     23  S   UNL     1      23.918   0.935   4.076  1.00  0.00     0.206 S 
ATOM     24  O   UNL     1      23.433   0.447   5.353  1.00  0.00    -0.219 OA
ATOM     25  O   UNL     1      23.127   0.749   2.871  1.00  0.00    -0.219 OA
BRANCH  23  26
ATOM     26  C   UNL     1      25.508   0.188   3.784  1.00  0.00     0.072 A 
ATOM     27  C   UNL     1      25.882  -0.951   4.507  1.00  0.00     0.021 A 
ATOM     28  C   UNL     1      26.343   0.696   2.782  1.00  0.00     0.021 A 
ATOM     29  C   UNL     1      27.103  -1.566   4.245  1.00  0.00     0.001 A 
ATOM     30  C   UNL     1      27.566   0.072   2.523  1.00  0.00     0.001 A 
ATOM     31  C   UNL     1      27.945  -1.054   3.255  1.00  0.00     0.000 A 
ENDBRANCH  23  26
ENDBRANCH  16  23
ENDBRANCH   2  13
TORSDOF 6
ENDMDL
MODEL 3
REMARK VINA RESULT:    -4.013      3.159      5.900
REMARK INTER + INTRA:          -6.418
REMARK INTER:                  -6.608
REMARK INTRA:                   0.190
REMARK UNBOUND:                -0.997
REMARK SMILES O=S(=O)(NC1CCNCC1)c1cc(S(=O)(=O)c2ccccc2)ccc1C(F)(F)F
REMARK SMILES IDX 1 1 2 2 3 3 4 4 5 6 6 7 10 8 7 9 9 10 8 11 11 13 12 14 25 15
REMARK SMILES IDX 13 16 24 17 23 18 26 19 27 20 28 21 29 22 14 23 15 24 16 25
REMARK SMILES IDX 17 26 18 27 22 28 19 29 21 30 20 31
REMARK H PARENT 4 5 8 12
ROOT
ATOM      1  O   UNL     1      27.041   3.537   6.722  1.00  0.00    -0.207 OA
ATOM      2  S   UNL     1      25.613   3.609   6.579  1.00  0.00     0.241 S 
ATOM      3  O   UNL     1      24.725   3.449   7.710  1.00  0.00    -0.207 OA
ENDROOT
BRANCH   2   4
ATOM      4  N   UNL     1      25.267   5.153   5.942  1.00  0.00    -0.208 NA
ATOM      5  H   UNL     1      25.066   5.765   6.738  1.00  0.00     0.141 HD
BRANCH   4   6
ATOM      6  C   UNL     1      26.242   5.736   4.968  1.00  0.00     0.072 C 
ATOM      7  C   UNL     1      26.654   7.153   5.397  1.00  0.00     0.035 C 
ATOM      8  C   UNL     1      25.697   5.754   3.541  1.00  0.00     0.035 C 
ATOM      9  C   UNL     1      25.608   8.216   5.067  1.00  0.00     0.082 C 
ATOM     10  C   UNL     1      24.648   6.841   3.338  1.00  0.00     0.082 C 
ATOM     11  N   UNL     1      25.174   8.164   3.672  1.00  0.00    -0.317 NA
ATOM     12  H   UNL     1      25.955   8.389   3.055  1.00  0.00     0.122 HD
ENDBRANCH   4   6
ENDBRANCH   2   4
BRANCH   2  13
ATOM     13  C   UNL     1      25.000   2.479   5.331  1.00  0.00     0.096 A 
ATOM     14  C   UNL     1      25.899   1.434   5.005  1.00  0.00     0.043 A 
ATOM     15  C   UNL     1      23.809   2.625   4.592  1.00  0.00     0.076 A 
ATOM     16  C   UNL     1      25.633   0.558   3.947  1.00  0.00     0.073 A 
ATOM     17  C   UNL     1      23.539   1.659   3.581  1.00  0.00     0.016 A 
ATOM     18  C   UNL     1      24.434   0.640   3.253  1.00  0.00     0.021 A 
BRANCH  15  19
ATOM     19  C   UNL     1      22.775   3.733   4.650  1.00  0.00     0.417 C 
ATOM     20  F   UNL     1      22.809   4.612   5.666  1.00  0.00    -0.166 F 
ATOM     21  F   UNL     1      22.839   4.501   3.520  1.00  0.00    -0.166 F 
ATOM     22  F   UNL     1      21.508   3.221   4.656  1.00  0.00    -0.166 F 
ENDBRANCH  15  19
BRANCH  16  23
ATOM     23  S   UNL     1      26.828  -0.685   3.497  1.00  0.00     0.206 S 
ATOM     24  O   UNL     1      26.187  -1.972   3.686  1.00  0.00    -0.219 OA
ATOM     25  O   UNL     1      27.363  -0.315   2.198  1.00  0.00    -0.219 OA
BRANCH  23  26
ATOM     26  C   UNL     1      28.163  -0.572   4.671  1.00  0.00     0.072 A 
ATOM     27  C   UNL     1      29.479  -0.787   4.246  1.00  0.00     0.021 A 
ATOM     28  C   UNL     1      27.898  -0.194   5.992  1.00  0.00     0.021 A 
ATOM     29  C   UNL     1      30.529  -0.651   5.150  1.00  0.00     0.001 A 
ATOM     30  C   UNL     1      28.957  -0.055   6.894  1.00  0.00     0.001 A 
ATOM     31  C   UNL     1      30.268  -0.286   6.473  1.00  0.00     0.000 A 
ENDBRANCH  23  26
ENDBRANCH  16  23
ENDBRANCH   2  13
TORSDOF 6
ENDMDL
MODEL 4
REMARK VINA RESULT:    -3.968      3.121      5.859
REMARK INTER + INTRA:          -6.357
REMARK INTER:                  -5.378
REMARK INTRA:                  -0.979
REMARK UNBOUND:                -0.997
REMARK SMILES O=S(=O)(NC1CCNCC1)c1cc(S(=O)(=O)c2ccccc2)ccc1C(F)(F)F
REMARK SMILES IDX 1 1 2 2 3 3 4 4 5 6 6 7 10 8 7 9 9 10 8 11 11 13 12 14 25 15
REMARK SMILES IDX 13 16 24 17 23 18 26 19 27 20 28 21 29 22 14 23 15 24 16 25
REMARK SMILES IDX 17 26 18 27 22 28 19 29 21 30 20 31
REMARK H PARENT 4 5 8 12
ROOT
ATOM      1  O   UNL     1      26.230   3.842   7.662  1.00  0.00    -0.207 OA
ATOM      2  S   UNL     1      25.076   3.755   6.810  1.00  0.00     0.241 S 
ATOM      3  O   UNL     1      23.774   3.397   7.326  1.00  0.00    -0.207 OA
ENDROOT
BRANCH   2   4
ATOM      4  N   UNL     1      24.880   5.296   6.104  1.00  0.00    -0.208 NA
ATOM      5  H   UNL     1      24.689   5.951   6.869  1.00  0.00     0.141 HD
BRANCH   4   6
ATOM      6  C   UNL     1      25.941   5.768   5.161  1.00  0.00     0.072 C 
ATOM      7  C   UNL     1      26.381   7.197   5.512  1.00  0.00     0.035 C 
ATOM      8  C   UNL     1      25.495   5.696   3.702  1.00  0.00     0.035 C 
ATOM      9  C   UNL     1      25.404   8.269   5.033  1.00  0.00     0.082 C 
ATOM     10  C   UNL     1      24.507   6.802   3.347  1.00  0.00     0.082 C 
ATOM     11  N   UNL     1      25.063   8.126   3.619  1.00  0.00    -0.317 NA
ATOM     12  H   UNL     1      25.892   8.276   3.043  1.00  0.00     0.122 HD
ENDBRANCH   4   6
ENDBRANCH   2   4
BRANCH   2  13
ATOM     13  C   UNL     1      25.348   2.670   5.410  1.00  0.00     0.096 A 
ATOM     14  C   UNL     1      26.673   2.184   5.304  1.00  0.00     0.043 A 
ATOM     15  C   UNL     1      24.421   2.390   4.386  1.00  0.00     0.076 A 
ATOM     16  C   UNL     1      27.084   1.446   4.187  1.00  0.00     0.073 A 
ATOM     17  C   UNL     1      24.859   1.564   3.311  1.00  0.00     0.016 A 
ATOM     18  C   UNL     1      26.170   1.099   3.202  1.00  0.00     0.021 A 
BRANCH  15  19
ATOM     19  C   UNL     1      23.010   2.913   4.200  1.00  0.00     0.417 C 
ATOM     20  F   UNL     1      22.766   4.223   4.372  1.00  0.00    -0.166 F 
ATOM     21  F   UNL     1      22.565   2.637   2.936  1.00  0.00    -0.166 F 
ATOM     22  F   UNL     1      22.136   2.269   5.029  1.00  0.00    -0.166 F 
ENDBRANCH  15  19
BRANCH  16  23
ATOM     23  S   UNL     1      28.782   0.931   4.035  1.00  0.00     0.206 S 
ATOM     24  O   UNL     1      29.271   1.462   2.776  1.00  0.00    -0.219 OA
ATOM     25  O   UNL     1      29.447   1.271   5.281  1.00  0.00    -0.219 OA
BRANCH  23  26
ATOM     26  C   UNL     1      28.779  -0.845   3.905  1.00  0.00     0.072 A 
ATOM     27  C   UNL     1      27.582  -1.550   4.081  1.00  0.00     0.021 A 
ATOM     28  C   UNL     1      29.953  -1.520   3.552  1.00  0.00     0.021 A 
ATOM     29  C   UNL     1      27.567  -2.934   3.931  1.00  0.00     0.001 A 
ATOM     30  C   UNL     1      29.929  -2.909   3.400  1.00  0.00     0.001 A 
ATOM     31  C   UNL     1      28.739  -3.613   3.592  1.00  0.00     0.000 A 
ENDBRANCH  23  26
ENDBRANCH  16  23
ENDBRANCH   2  13
TORSDOF 6
ENDMDL
MODEL 5
REMARK VINA RESULT:    -3.845      3.213      5.947
REMARK INTER + INTRA:          -6.191
REMARK INTER:                  -6.582
REMARK INTRA:                   0.391
REMARK UNBOUND:                -0.997
REMARK SMILES O=S(=O)(NC1CCNCC1)c1cc(S(=O)(=O)c2ccccc2)ccc1C(F)(F)F
REMARK SMILES IDX 1 1 2 2 3 3 4 4 5 6 6 7 10 8 7 9 9 10 8 11 11 13 12 14 25 15
REMARK SMILES IDX 13 16 24 17 23 18 26 19 27 20 28 21 29 22 14 23 15 24 16 25
REMARK SMILES IDX 17 26 18 27 22 28 19 29 21 30 20 31
REMARK H PARENT 4 5 8 12
ROOT
ATOM      1  O   UNL     1      27.625   3.599   6.336  1.00  0.00    -0.207 OA
ATOM      2  S   UNL     1      26.206   3.551   6.562  1.00  0.00     0.241 S 
ATOM      3  O   UNL     1      25.649   3.502   7.896  1.00  0.00    -0.207 OA
ENDROOT
BRANCH   2   4
ATOM      4  N   UNL     1      25.554   4.956   5.847  1.00  0.00    -0.208 NA
ATOM      5  H   UNL     1      25.030   5.446   6.578  1.00  0.00     0.141 HD
BRANCH   4   6
ATOM      6  C   UNL     1      26.487   5.842   5.081  1.00  0.00     0.072 C 
ATOM      7  C   UNL     1      26.567   7.232   5.729  1.00  0.00     0.035 C 
ATOM      8  C   UNL     1      26.093   5.966   3.611  1.00  0.00     0.035 C 
ATOM      9  C   UNL     1      25.370   8.123   5.405  1.00  0.00     0.082 C 
ATOM     10  C   UNL     1      24.876   6.862   3.414  1.00  0.00     0.082 C 
ATOM     11  N   UNL     1      25.094   8.195   3.971  1.00  0.00    -0.317 NA
ATOM     12  H   UNL     1      25.872   8.646   3.489  1.00  0.00     0.122 HD
ENDBRANCH   4   6
ENDBRANCH   2   4
BRANCH   2  13
ATOM     13  C   UNL     1      25.423   2.209   5.669  1.00  0.00     0.096 A 
ATOM     14  C   UNL     1      26.167   1.004   5.668  1.00  0.00     0.043 A 
ATOM     15  C   UNL     1      24.249   2.301   4.896  1.00  0.00     0.076 A 
ATOM     16  C   UNL     1      25.765  -0.091   4.894  1.00  0.00     0.073 A 
ATOM     17  C   UNL     1      23.832   1.135   4.192  1.00  0.00     0.016 A 
ATOM     18  C   UNL     1      24.575  -0.046   4.181  1.00  0.00     0.021 A 
BRANCH  15  19
ATOM     19  C   UNL     1      23.374   3.509   4.620  1.00  0.00     0.417 C 
ATOM     20  F   UNL     1      23.180   4.416   5.592  1.00  0.00    -0.166 F 
ATOM     21  F   UNL     1      23.874   4.225   3.568  1.00  0.00    -0.166 F 
ATOM     22  F   UNL     1      22.123   3.128   4.224  1.00  0.00    -0.166 F 
ENDBRANCH  15  19
BRANCH  16  23
ATOM     23  S   UNL     1      26.773  -1.559   4.835  1.00  0.00     0.206 S 
ATOM     24  O   UNL     1      27.272  -1.779   6.179  1.00  0.00    -0.219 OA
ATOM     25  O   UNL     1      25.996  -2.586   4.163  1.00  0.00    -0.219 OA
BRANCH  23  26
ATOM     26  C   UNL     1      28.171  -1.189   3.795  1.00  0.00     0.072 A 
ATOM     27  C   UNL     1      28.268   0.068   3.185  1.00  0.00     0.021 A 
ATOM     28  C   UNL     1      29.201  -2.126   3.655  1.00  0.00     0.021 A 
ATOM     29  C   UNL     1      29.384   0.377   2.412  1.00  0.00     0.001 A 
ATOM     30  C   UNL     1      30.320  -1.808   2.880  1.00  0.00     0.001 A 
ATOM     31  C   UNL     1      30.408  -0.560   2.259  1.00  0.00     0.000 A 
ENDBRANCH  23  26
ENDBRANCH  16  23
ENDBRANCH   2  13
TORSDOF 6
ENDMDL
MODEL 6
REMARK VINA RESULT:    -3.759      3.264      6.010
REMARK INTER + INTRA:          -6.075
REMARK INTER:                  -5.431
REMARK INTRA:                  -0.644
REMARK UNBOUND:                -0.997
REMARK SMILES O=S(=O)(NC1CCNCC1)c1cc(S(=O)(=O)c2ccccc2)ccc1C(F)(F)F
REMARK SMILES IDX 1 1 2 2 3 3 4 4 5 6 6 7 10 8 7 9 9 10 8 11 11 13 12 14 25 15
REMARK SMILES IDX 13 16 24 17 23 18 26 19 27 20 28 21 29 22 14 23 15 24 16 25
REMARK SMILES IDX 17 26 18 27 22 28 19 29 21 30 20 31
REMARK H PARENT 4 5 8 12
ROOT
ATOM      1  O   UNL     1      26.778   2.974   7.560  1.00  0.00    -0.207 OA
ATOM      2  S   UNL     1      25.509   3.349   6.999  1.00  0.00     0.241 S 
ATOM      3  O   UNL     1      24.349   3.582   7.831  1.00  0.00    -0.207 OA
ENDROOT
BRANCH   2   4
ATOM      4  N   UNL     1      25.766   4.808   6.155  1.00  0.00    -0.208 NA
ATOM      5  H   UNL     1      25.330   5.553   6.708  1.00  0.00     0.141 HD
BRANCH   4   6
ATOM      6  C   UNL     1      27.164   5.123   5.722  1.00  0.00     0.072 C 
ATOM      7  C   UNL     1      27.169   6.274   4.704  1.00  0.00     0.035 C 
ATOM      8  C   UNL     1      27.881   3.904   5.145  1.00  0.00     0.035 C 
ATOM      9  C   UNL     1      26.773   5.839   3.294  1.00  0.00     0.082 C 
ATOM     10  C   UNL     1      27.389   3.555   3.745  1.00  0.00     0.082 C 
ATOM     11  N   UNL     1      27.537   4.683   2.827  1.00  0.00    -0.317 NA
ATOM     12  H   UNL     1      28.523   4.929   2.740  1.00  0.00     0.122 HD
ENDBRANCH   4   6
ENDBRANCH   2   4
BRANCH   2  13
ATOM     13  C   UNL     1      24.964   2.206   5.731  1.00  0.00     0.096 A 
ATOM     14  C   UNL     1      25.654   0.969   5.732  1.00  0.00     0.043 A 
ATOM     15  C   UNL     1      24.043   2.486   4.703  1.00  0.00     0.076 A 
ATOM     16  C   UNL     1      25.450   0.029   4.716  1.00  0.00     0.073 A 
ATOM     17  C   UNL     1      23.804   1.465   3.738  1.00  0.00     0.016 A 
ATOM     18  C   UNL     1      24.496   0.254   3.734  1.00  0.00     0.021 A 
BRANCH  15  19
ATOM     19  C   UNL     1      23.301   3.774   4.404  1.00  0.00     0.417 C 
ATOM     20  F   UNL     1      23.975   4.816   3.888  1.00  0.00    -0.166 F 
ATOM     21  F   UNL     1      22.285   3.542   3.519  1.00  0.00    -0.166 F 
ATOM     22  F   UNL     1      22.688   4.258   5.525  1.00  0.00    -0.166 F 
ENDBRANCH  15  19
BRANCH  16  23
ATOM     23  S   UNL     1      26.404  -1.476   4.690  1.00  0.00     0.206 S 
ATOM     24  O   UNL     1      26.781  -1.758   6.061  1.00  0.00    -0.219 OA
ATOM     25  O   UNL     1      25.648  -2.449   3.921  1.00  0.00    -0.219 OA
BRANCH  23  26
ATOM     26  C   UNL     1      27.897  -1.130   3.782  1.00  0.00     0.072 A 
ATOM     27  C   UNL     1      28.072   0.126   3.188  1.00  0.00     0.021 A 
ATOM     28  C   UNL     1      28.919  -2.085   3.732  1.00  0.00     0.021 A 
ATOM     29  C   UNL     1      29.258   0.416   2.520  1.00  0.00     0.001 A 
ATOM     30  C   UNL     1      30.108  -1.786   3.063  1.00  0.00     0.001 A 
ATOM     31  C   UNL     1      30.275  -0.539   2.457  1.00  0.00     0.000 A 
ENDBRANCH  23  26
ENDBRANCH  16  23
ENDBRANCH   2  13
TORSDOF 6
ENDMDL
MODEL 7
REMARK VINA RESULT:    -3.630      3.696      5.782
REMARK INTER + INTRA:          -5.900
REMARK INTER:                  -6.730
REMARK INTRA:                   0.829
REMARK UNBOUND:                -0.997
REMARK SMILES O=S(=O)(NC1CCNCC1)c1cc(S(=O)(=O)c2ccccc2)ccc1C(F)(F)F
REMARK SMILES IDX 1 1 2 2 3 3 4 4 5 6 6 7 10 8 7 9 9 10 8 11 11 13 12 14 25 15
REMARK SMILES IDX 13 16 24 17 23 18 26 19 27 20 28 21 29 22 14 23 15 24 16 25
REMARK SMILES IDX 17 26 18 27 22 28 19 29 21 30 20 31
REMARK H PARENT 4 5 8 12
ROOT
ATOM      1  O   UNL     1      23.767   4.546   5.653  1.00  0.00    -0.207 OA
ATOM      2  S   UNL     1      24.489   3.466   6.269  1.00  0.00     0.241 S 
ATOM      3  O   UNL     1      24.527   3.298   7.705  1.00  0.00    -0.207 OA
ENDROOT
BRANCH   2   4
ATOM      4  N   UNL     1      23.815   2.023   5.658  1.00  0.00    -0.208 NA
ATOM      5  H   UNL     1      23.086   1.734   6.317  1.00  0.00     0.141 HD
BRANCH   4   6
ATOM      6  C   UNL     1      23.371   2.015   4.229  1.00  0.00     0.072 C 
ATOM      7  C   UNL     1      23.662   0.653   3.580  1.00  0.00     0.035 C 
ATOM      8  C   UNL     1      24.014   3.136   3.415  1.00  0.00     0.035 C 
ATOM      9  C   UNL     1      25.125   0.469   3.182  1.00  0.00     0.082 C 
ATOM     10  C   UNL     1      25.476   2.850   3.096  1.00  0.00     0.082 C 
ATOM     11  N   UNL     1      25.634   1.583   2.384  1.00  0.00    -0.317 NA
ATOM     12  H   UNL     1      25.141   1.627   1.491  1.00  0.00     0.122 HD
ENDBRANCH   4   6
ENDBRANCH   2   4
BRANCH   2  13
ATOM     13  C   UNL     1      26.199   3.404   5.737  1.00  0.00     0.096 A 
ATOM     14  C   UNL     1      26.810   2.138   5.900  1.00  0.00     0.043 A 
ATOM     15  C   UNL     1      26.977   4.502   5.317  1.00  0.00     0.076 A 
ATOM     16  C   UNL     1      28.180   1.963   5.671  1.00  0.00     0.073 A 
ATOM     17  C   UNL     1      28.348   4.259   5.014  1.00  0.00     0.016 A 
ATOM     18  C   UNL     1      28.949   3.013   5.190  1.00  0.00     0.021 A 
BRANCH  15  19
ATOM     19  C   UNL     1      26.594   5.966   5.213  1.00  0.00     0.417 C 
ATOM     20  F   UNL     1      25.858   6.524   6.190  1.00  0.00    -0.166 F 
ATOM     21  F   UNL     1      27.715   6.745   5.131  1.00  0.00    -0.166 F 
ATOM     22  F   UNL     1      25.909   6.212   4.057  1.00  0.00    -0.166 F 
ENDBRANCH  15  19
BRANCH  16  23
ATOM     23  S   UNL     1      28.940   0.381   5.979  1.00  0.00     0.206 S 
ATOM     24  O   UNL     1      30.273   0.438   5.411  1.00  0.00    -0.219 OA
ATOM     25  O   UNL     1      28.755   0.084   7.389  1.00  0.00    -0.219 OA
BRANCH  23  26
ATOM     26  C   UNL     1      28.013  -0.830   5.058  1.00  0.00     0.072 A 
ATOM     27  C   UNL     1      28.434  -1.192   3.773  1.00  0.00     0.021 A 
ATOM     28  C   UNL     1      26.918  -1.466   5.651  1.00  0.00     0.021 A 
ATOM     29  C   UNL     1      27.740  -2.175   3.071  1.00  0.00     0.001 A 
ATOM     30  C   UNL     1      26.229  -2.454   4.942  1.00  0.00     0.001 A 
ATOM     31  C   UNL     1      26.639  -2.804   3.654  1.00  0.00     0.000 A 
ENDBRANCH  23  26
ENDBRANCH  16  23
ENDBRANCH   2  13
TORSDOF 6
ENDMDL
MODEL 8
REMARK VINA RESULT:    -3.576      4.019      6.951
REMARK INTER + INTRA:          -5.827
REMARK INTER:                  -6.659
REMARK INTRA:                   0.832
REMARK UNBOUND:                -0.997
REMARK SMILES O=S(=O)(NC1CCNCC1)c1cc(S(=O)(=O)c2ccccc2)ccc1C(F)(F)F
REMARK SMILES IDX 1 1 2 2 3 3 4 4 5 6 6 7 10 8 7 9 9 10 8 11 11 13 12 14 25 15
REMARK SMILES IDX 13 16 24 17 23 18 26 19 27 20 28 21 29 22 14 23 15 24 16 25
REMARK SMILES IDX 17 26 18 27 22 28 19 29 21 30 20 31
REMARK H PARENT 4 5 8 12
ROOT
ATOM      1  O   UNL     1      27.920   6.202   6.402  1.00  0.00    -0.207 OA
ATOM      2  S   UNL     1      27.636   5.221   5.391  1.00  0.00     0.241 S 
ATOM      3  O   UNL     1      28.220   5.299   4.070  1.00  0.00    -0.207 OA
ENDROOT
BRANCH   2   4
ATOM      4  N   UNL     1      28.132   3.716   6.022  1.00  0.00    -0.208 NA
ATOM      5  H   UNL     1      27.937   3.738   7.028  1.00  0.00     0.141 HD
BRANCH   4   6
ATOM      6  C   UNL     1      27.636   2.480   5.341  1.00  0.00     0.072 C 
ATOM      7  C   UNL     1      27.534   1.316   6.338  1.00  0.00     0.035 C 
ATOM      8  C   UNL     1      28.510   2.083   4.152  1.00  0.00     0.035 C 
ATOM      9  C   UNL     1      28.881   0.666   6.654  1.00  0.00     0.082 C 
ATOM     10  C   UNL     1      29.833   1.466   4.591  1.00  0.00     0.082 C 
ATOM     11  N   UNL     1      29.624   0.301   5.449  1.00  0.00    -0.317 NA
ATOM     12  H   UNL     1      29.120  -0.421   4.933  1.00  0.00     0.122 HD
ENDBRANCH   4   6
ENDBRANCH   2   4
BRANCH   2  13
ATOM     13  C   UNL     1      25.876   5.018   5.120  1.00  0.00     0.096 A 
ATOM     14  C   UNL     1      25.456   3.668   5.035  1.00  0.00     0.043 A 
ATOM     15  C   UNL     1      24.951   6.050   4.864  1.00  0.00     0.076 A 
ATOM     16  C   UNL     1      24.141   3.343   4.681  1.00  0.00     0.073 A 
ATOM     17  C   UNL     1      23.605   5.674   4.590  1.00  0.00     0.016 A 
ATOM     18  C   UNL     1      23.198   4.343   4.494  1.00  0.00     0.021 A 
BRANCH  15  19
ATOM     19  C   UNL     1      25.189   7.543   4.749  1.00  0.00     0.417 C 
ATOM     20  F   UNL     1      26.437   8.023   4.882  1.00  0.00    -0.166 F 
ATOM     21  F   UNL     1      24.768   7.997   3.529  1.00  0.00    -0.166 F 
ATOM     22  F   UNL     1      24.437   8.231   5.659  1.00  0.00    -0.166 F 
ENDBRANCH  15  19
BRANCH  16  23
ATOM     23  S   UNL     1      23.668   1.637   4.486  1.00  0.00     0.206 S 
ATOM     24  O   UNL     1      23.432   1.112   5.817  1.00  0.00    -0.219 OA
ATOM     25  O   UNL     1      22.617   1.595   3.483  1.00  0.00    -0.219 OA
BRANCH  23  26
ATOM     26  C   UNL     1      25.076   0.779   3.811  1.00  0.00     0.072 A 
ATOM     27  C   UNL     1      25.559  -0.369   4.450  1.00  0.00     0.021 A 
ATOM     28  C   UNL     1      25.643   1.211   2.607  1.00  0.00     0.021 A 
ATOM     29  C   UNL     1      26.628  -1.069   3.898  1.00  0.00     0.001 A 
ATOM     30  C   UNL     1      26.714   0.502   2.057  1.00  0.00     0.001 A 
ATOM     31  C   UNL     1      27.205  -0.634   2.703  1.00  0.00     0.000 A 
ENDBRANCH  23  26
ENDBRANCH  16  23
ENDBRANCH   2  13
TORSDOF 6
ENDMDL
MODEL 9
REMARK VINA RESULT:    -3.356      3.819      5.841
REMARK INTER + INTRA:          -5.530
REMARK INTER:                  -5.085
REMARK INTRA:                  -0.446
REMARK UNBOUND:                -0.997
REMARK SMILES O=S(=O)(NC1CCNCC1)c1cc(S(=O)(=O)c2ccccc2)ccc1C(F)(F)F
REMARK SMILES IDX 1 1 2 2 3 3 4 4 5 6 6 7 10 8 7 9 9 10 8 11 11 13 12 14 25 15
REMARK SMILES IDX 13 16 24 17 23 18 26 19 27 20 28 21 29 22 14 23 15 24 16 25
REMARK SMILES IDX 17 26 18 27 22 28 19 29 21 30 20 31
REMARK H PARENT 4 5 8 12
ROOT
ATOM      1  O   UNL     1      22.621   4.463   4.712  1.00  0.00    -0.207 OA
ATOM      2  S   UNL     1      23.648   3.879   5.530  1.00  0.00     0.241 S 
ATOM      3  O   UNL     1      23.538   3.833   6.972  1.00  0.00    -0.207 OA
ENDROOT
BRANCH   2   4
ATOM      4  N   UNL     1      23.800   2.255   5.032  1.00  0.00    -0.208 NA
ATOM      5  H   UNL     1      23.157   1.705   5.611  1.00  0.00     0.141 HD
BRANCH   4   6
ATOM      6  C   UNL     1      23.687   1.965   3.568  1.00  0.00     0.072 C 
ATOM      7  C   UNL     1      23.769   0.453   3.308  1.00  0.00     0.035 C 
ATOM      8  C   UNL     1      24.745   2.700   2.747  1.00  0.00     0.035 C 
ATOM      9  C   UNL     1      25.194  -0.096   3.362  1.00  0.00     0.082 C 
ATOM     10  C   UNL     1      26.126   2.075   2.895  1.00  0.00     0.082 C 
ATOM     11  N   UNL     1      26.120   0.662   2.521  1.00  0.00    -0.317 NA
ATOM     12  H   UNL     1      25.858   0.567   1.540  1.00  0.00     0.122 HD
ENDBRANCH   4   6
ENDBRANCH   2   4
BRANCH   2  13
ATOM     13  C   UNL     1      25.262   4.586   5.199  1.00  0.00     0.096 A 
ATOM     14  C   UNL     1      26.345   3.746   5.554  1.00  0.00     0.043 A 
ATOM     15  C   UNL     1      25.517   5.901   4.760  1.00  0.00     0.076 A 
ATOM     16  C   UNL     1      27.665   4.209   5.496  1.00  0.00     0.073 A 
ATOM     17  C   UNL     1      26.879   6.300   4.635  1.00  0.00     0.016 A 
ATOM     18  C   UNL     1      27.942   5.475   5.000  1.00  0.00     0.021 A 
BRANCH  15  19
ATOM     19  C   UNL     1      24.538   7.021   4.469  1.00  0.00     0.417 C 
ATOM     20  F   UNL     1      23.607   7.337   5.386  1.00  0.00    -0.166 F 
ATOM     21  F   UNL     1      25.210   8.190   4.237  1.00  0.00    -0.166 F 
ATOM     22  F   UNL     1      23.845   6.780   3.317  1.00  0.00    -0.166 F 
ENDBRANCH  15  19
BRANCH  16  23
ATOM     23  S   UNL     1      29.000   3.163   6.042  1.00  0.00     0.206 S 
ATOM     24  O   UNL     1      30.203   3.643   5.390  1.00  0.00    -0.219 OA
ATOM     25  O   UNL     1      28.927   3.096   7.492  1.00  0.00    -0.219 OA
BRANCH  23  26
ATOM     26  C   UNL     1      28.667   1.527   5.421  1.00  0.00     0.072 A 
ATOM     27  C   UNL     1      29.240   1.116   4.211  1.00  0.00     0.021 A 
ATOM     28  C   UNL     1      27.900   0.637   6.180  1.00  0.00     0.021 A 
ATOM     29  C   UNL     1      29.022  -0.179   3.748  1.00  0.00     0.001 A 
ATOM     30  C   UNL     1      27.688  -0.662   5.711  1.00  0.00     0.001 A 
ATOM     31  C   UNL     1      28.246  -1.067   4.497  1.00  0.00     0.000 A 
ENDBRANCH  23  26
ENDBRANCH  16  23
ENDBRANCH   2  13
TORSDOF 6
ENDMDL
MODEL 10
REMARK VINA RESULT:    -3.234      2.394      3.315
REMARK INTER + INTRA:          -5.365
REMARK INTER:                  -5.243
REMARK INTRA:                  -0.123
REMARK UNBOUND:                -0.997
REMARK SMILES O=S(=O)(NC1CCNCC1)c1cc(S(=O)(=O)c2ccccc2)ccc1C(F)(F)F
REMARK SMILES IDX 1 1 2 2 3 3 4 4 5 6 6 7 10 8 7 9 9 10 8 11 11 13 12 14 25 15
REMARK SMILES IDX 13 16 24 17 23 18 26 19 27 20 28 21 29 22 14 23 15 24 16 25
REMARK SMILES IDX 17 26 18 27 22 28 19 29 21 30 20 31
REMARK H PARENT 4 5 8 12
ROOT
ATOM      1  O   UNL     1      28.072  -1.213   3.729  1.00  0.00    -0.207 OA
ATOM      2  S   UNL     1      28.177   0.153   3.295  1.00  0.00     0.241 S 
ATOM      3  O   UNL     1      29.274   0.606   2.468  1.00  0.00    -0.207 OA
ENDROOT
BRANCH   2   4
ATOM      4  N   UNL     1      26.763   0.488   2.403  1.00  0.00    -0.208 NA
ATOM      5  H   UNL     1      27.007   0.395   1.412  1.00  0.00     0.141 HD
BRANCH   4   6
ATOM      6  C   UNL     1      25.513  -0.242   2.783  1.00  0.00     0.072 C 
ATOM      7  C   UNL     1      24.272   0.508   2.276  1.00  0.00     0.035 C 
ATOM      8  C   UNL     1      25.412  -0.474   4.290  1.00  0.00     0.035 C 
ATOM      9  C   UNL     1      23.895   1.711   3.138  1.00  0.00     0.082 C 
ATOM     10  C   UNL     1      25.050   0.800   5.045  1.00  0.00     0.082 C 
ATOM     11  N   UNL     1      23.798   1.376   4.559  1.00  0.00    -0.317 NA
ATOM     12  H   UNL     1      23.034   0.717   4.710  1.00  0.00     0.122 HD
ENDBRANCH   4   6
ENDBRANCH   2   4
BRANCH   2  13
ATOM     13  C   UNL     1      28.108   1.306   4.666  1.00  0.00     0.096 A 
ATOM     14  C   UNL     1      27.745   2.623   4.295  1.00  0.00     0.043 A 
ATOM     15  C   UNL     1      28.499   1.040   5.993  1.00  0.00     0.076 A 
ATOM     16  C   UNL     1      27.789   3.671   5.223  1.00  0.00     0.073 A 
ATOM     17  C   UNL     1      28.447   2.119   6.922  1.00  0.00     0.016 A 
ATOM     18  C   UNL     1      28.103   3.418   6.551  1.00  0.00     0.021 A 
BRANCH  15  19
ATOM     19  C   UNL     1      29.064  -0.234   6.590  1.00  0.00     0.417 C 
ATOM     20  F   UNL     1      29.393  -0.261   7.893  1.00  0.00    -0.166 F 
ATOM     21  F   UNL     1      28.178  -1.265   6.432  1.00  0.00    -0.166 F 
ATOM     22  F   UNL     1      30.188  -0.631   5.924  1.00  0.00    -0.166 F 
ENDBRANCH  15  19
BRANCH  16  23
ATOM     23  S   UNL     1      27.422   5.335   4.704  1.00  0.00     0.206 S 
ATOM     24  O   UNL     1      27.941   6.219   5.730  1.00  0.00    -0.219 OA
ATOM     25  O   UNL     1      27.870   5.464   3.328  1.00  0.00    -0.219 OA
BRANCH  23  26
ATOM     26  C   UNL     1      25.648   5.499   4.699  1.00  0.00     0.072 A 
ATOM     27  C   UNL     1      25.049   6.519   3.950  1.00  0.00     0.021 A 
ATOM     28  C   UNL     1      24.860   4.565   5.381  1.00  0.00     0.021 A 
ATOM     29  C   UNL     1      23.661   6.619   3.904  1.00  0.00     0.001 A 
ATOM     30  C   UNL     1      23.468   4.669   5.328  1.00  0.00     0.001 A 
ATOM     31  C   UNL     1      22.871   5.695   4.593  1.00  0.00     0.000 A 
ENDBRANCH  23  26
ENDBRANCH  16  23
ENDBRANCH   2  13
TORSDOF 6
ENDMDL
MODEL 11
REMARK VINA RESULT:    -3.205      1.822      2.365
REMARK INTER + INTRA:          -5.326
REMARK INTER:                  -5.869
REMARK INTRA:                   0.543
REMARK UNBOUND:                -0.997
REMARK SMILES O=S(=O)(NC1CCNCC1)c1cc(S(=O)(=O)c2ccccc2)ccc1C(F)(F)F
REMARK SMILES IDX 1 1 2 2 3 3 4 4 5 6 6 7 10 8 7 9 9 10 8 11 11 13 12 14 25 15
REMARK SMILES IDX 13 16 24 17 23 18 26 19 27 20 28 21 29 22 14 23 15 24 16 25
REMARK SMILES IDX 17 26 18 27 22 28 19 29 21 30 20 31
REMARK H PARENT 4 5 8 12
ROOT
ATOM      1  O   UNL     1      26.390  -1.912   5.762  1.00  0.00    -0.207 OA
ATOM      2  S   UNL     1      26.268  -0.934   4.715  1.00  0.00     0.241 S 
ATOM      3  O   UNL     1      26.239  -1.312   3.320  1.00  0.00    -0.207 OA
ENDROOT
BRANCH   2   4
ATOM      4  N   UNL     1      24.802  -0.107   4.995  1.00  0.00    -0.208 NA
ATOM      5  H   UNL     1      24.986   0.583   5.729  1.00  0.00     0.141 HD
BRANCH   4   6
ATOM      6  C   UNL     1      24.085   0.456   3.808  1.00  0.00     0.072 C 
ATOM      7  C   UNL     1      25.087   0.996   2.777  1.00  0.00     0.035 C 
ATOM      8  C   UNL     1      23.087   1.544   4.196  1.00  0.00     0.035 C 
ATOM      9  C   UNL     1      25.660   2.363   3.145  1.00  0.00     0.082 C 
ATOM     10  C   UNL     1      23.775   2.853   4.562  1.00  0.00     0.082 C 
ATOM     11  N   UNL     1      24.622   3.339   3.473  1.00  0.00    -0.317 NA
ATOM     12  H   UNL     1      24.049   3.527   2.650  1.00  0.00     0.122 HD
ENDBRANCH   4   6
ENDBRANCH   2   4
BRANCH   2  13
ATOM     13  C   UNL     1      27.516   0.346   4.836  1.00  0.00     0.096 A 
ATOM     14  C   UNL     1      27.156   1.428   5.675  1.00  0.00     0.043 A 
ATOM     15  C   UNL     1      28.709   0.414   4.089  1.00  0.00     0.076 A 
ATOM     16  C   UNL     1      27.956   2.574   5.758  1.00  0.00     0.073 A 
ATOM     17  C   UNL     1      29.534   1.561   4.269  1.00  0.00     0.016 A 
ATOM     18  C   UNL     1      29.169   2.631   5.086  1.00  0.00     0.021 A 
BRANCH  15  19
ATOM     19  C   UNL     1      29.231  -0.534   3.026  1.00  0.00     0.417 C 
ATOM     20  F   UNL     1      29.588  -1.781   3.376  1.00  0.00    -0.166 F 
ATOM     21  F   UNL     1      28.296  -0.701   2.041  1.00  0.00    -0.166 F 
ATOM     22  F   UNL     1      30.320  -0.009   2.392  1.00  0.00    -0.166 F 
ENDBRANCH  15  19
BRANCH  16  23
ATOM     23  S   UNL     1      27.428   3.959   6.745  1.00  0.00     0.206 S 
ATOM     24  O   UNL     1      26.414   3.464   7.656  1.00  0.00    -0.219 OA
ATOM     25  O   UNL     1      28.626   4.601   7.259  1.00  0.00    -0.219 OA
BRANCH  23  26
ATOM     26  C   UNL     1      26.642   5.116   5.642  1.00  0.00     0.072 A 
ATOM     27  C   UNL     1      27.196   5.355   4.379  1.00  0.00     0.021 A 
ATOM     28  C   UNL     1      25.435   5.720   6.011  1.00  0.00     0.021 A 
ATOM     29  C   UNL     1      26.557   6.220   3.495  1.00  0.00     0.001 A 
ATOM     30  C   UNL     1      24.797   6.585   5.119  1.00  0.00     0.001 A 
ATOM     31  C   UNL     1      25.359   6.835   3.865  1.00  0.00     0.000 A 
ENDBRANCH  23  26
ENDBRANCH  16  23
ENDBRANCH   2  13
TORSDOF 6
ENDMDL
MODEL 12
REMARK VINA RESULT:    -3.148      2.586      4.548
REMARK INTER + INTRA:          -5.250
REMARK INTER:                  -6.348
REMARK INTRA:                   1.098
REMARK UNBOUND:                -0.997
REMARK SMILES O=S(=O)(NC1CCNCC1)c1cc(S(=O)(=O)c2ccccc2)ccc1C(F)(F)F
REMARK SMILES IDX 1 1 2 2 3 3 4 4 5 6 6 7 10 8 7 9 9 10 8 11 11 13 12 14 25 15
REMARK SMILES IDX 13 16 24 17 23 18 26 19 27 20 28 21 29 22 14 23 15 24 16 25
REMARK SMILES IDX 17 26 18 27 22 28 19 29 21 30 20 31
REMARK H PARENT 4 5 8 12
ROOT
ATOM      1  O   UNL     1      25.273   0.309   3.345  1.00  0.00    -0.207 OA
ATOM      2  S   UNL     1      25.806   0.032   4.650  1.00  0.00     0.241 S 
ATOM      3  O   UNL     1      24.947  -0.243   5.781  1.00  0.00    -0.207 OA
ENDROOT
BRANCH   2   4
ATOM      4  N   UNL     1      26.798  -1.346   4.485  1.00  0.00    -0.208 NA
ATOM      5  H   UNL     1      26.311  -2.120   4.949  1.00  0.00     0.141 HD
BRANCH   4   6
ATOM      6  C   UNL     1      27.293  -1.685   3.114  1.00  0.00     0.072 C 
ATOM      7  C   UNL     1      28.392  -2.755   3.184  1.00  0.00     0.035 C 
ATOM      8  C   UNL     1      27.800  -0.457   2.360  1.00  0.00     0.035 C 
ATOM      9  C   UNL     1      29.755  -2.202   3.598  1.00  0.00     0.082 C 
ATOM     10  C   UNL     1      29.155   0.015   2.873  1.00  0.00     0.082 C 
ATOM     11  N   UNL     1      30.157  -1.046   2.798  1.00  0.00    -0.317 NA
ATOM     12  H   UNL     1      30.291  -1.325   1.825  1.00  0.00     0.122 HD
ENDBRANCH   4   6
ENDBRANCH   2   4
BRANCH   2  13
ATOM     13  C   UNL     1      26.932   1.310   5.208  1.00  0.00     0.096 A 
ATOM     14  C   UNL     1      26.672   2.589   4.658  1.00  0.00     0.043 A 
ATOM     15  C   UNL     1      28.078   1.116   6.005  1.00  0.00     0.076 A 
ATOM     16  C   UNL     1      27.548   3.659   4.877  1.00  0.00     0.073 A 
ATOM     17  C   UNL     1      28.894   2.253   6.271  1.00  0.00     0.016 A 
ATOM     18  C   UNL     1      28.643   3.508   5.716  1.00  0.00     0.021 A 
BRANCH  15  19
ATOM     19  C   UNL     1      28.643  -0.170   6.575  1.00  0.00     0.417 C 
ATOM     20  F   UNL     1      27.893  -1.285   6.551  1.00  0.00    -0.166 F 
ATOM     21  F   UNL     1      29.796  -0.511   5.923  1.00  0.00    -0.166 F 
ATOM     22  F   UNL     1      29.011  -0.008   7.880  1.00  0.00    -0.166 F 
ENDBRANCH  15  19
BRANCH  16  23
ATOM     23  S   UNL     1      27.248   5.230   4.093  1.00  0.00     0.206 S 
ATOM     24  O   UNL     1      27.954   6.230   4.871  1.00  0.00    -0.219 OA
ATOM     25  O   UNL     1      27.533   5.065   2.678  1.00  0.00    -0.219 OA
BRANCH  23  26
ATOM     26  C   UNL     1      25.504   5.563   4.244  1.00  0.00     0.072 A 
ATOM     27  C   UNL     1      24.600   4.498   4.327  1.00  0.00     0.021 A 
ATOM     28  C   UNL     1      25.055   6.884   4.356  1.00  0.00     0.021 A 
ATOM     29  C   UNL     1      23.242   4.755   4.496  1.00  0.00     0.001 A 
ATOM     30  C   UNL     1      23.691   7.134   4.529  1.00  0.00     0.001 A 
ATOM     31  C   UNL     1      22.788   6.071   4.596  1.00  0.00     0.000 A 
ENDBRANCH  23  26
ENDBRANCH  16  23
ENDBRANCH   2  13
TORSDOF 6
ENDMDL
MODEL 13
REMARK VINA RESULT:    -2.925      3.456      5.411
REMARK INTER + INTRA:          -4.948
REMARK INTER:                  -4.145
REMARK INTRA:                  -0.803
REMARK UNBOUND:                -0.997
REMARK SMILES O=S(=O)(NC1CCNCC1)c1cc(S(=O)(=O)c2ccccc2)ccc1C(F)(F)F
REMARK SMILES IDX 1 1 2 2 3 3 4 4 5 6 6 7 10 8 7 9 9 10 8 11 11 13 12 14 25 15
REMARK SMILES IDX 13 16 24 17 23 18 26 19 27 20 28 21 29 22 14 23 15 24 16 25
REMARK SMILES IDX 17 26 18 27 22 28 19 29 21 30 20 31
REMARK H PARENT 4 5 8 12
ROOT
ATOM      1  O   UNL     1      26.368   2.297   2.293  1.00  0.00    -0.207 OA
ATOM      2  S   UNL     1      26.600   3.552   2.955  1.00  0.00     0.241 S 
ATOM      3  O   UNL     1      27.222   4.667   2.275  1.00  0.00    -0.207 OA
ENDROOT
BRANCH   2   4
ATOM      4  N   UNL     1      25.075   4.120   3.465  1.00  0.00    -0.208 NA
ATOM      5  H   UNL     1      24.722   4.732   2.722  1.00  0.00     0.141 HD
BRANCH   4   6
ATOM      6  C   UNL     1      24.077   3.107   3.932  1.00  0.00     0.072 C 
ATOM      7  C   UNL     1      22.795   3.796   4.423  1.00  0.00     0.035 C 
ATOM      8  C   UNL     1      24.640   2.199   5.024  1.00  0.00     0.035 C 
ATOM      9  C   UNL     1      22.924   4.394   5.823  1.00  0.00     0.082 C 
ATOM     10  C   UNL     1      24.741   2.909   6.368  1.00  0.00     0.082 C 
ATOM     11  N   UNL     1      23.446   3.436   6.797  1.00  0.00    -0.317 NA
ATOM     12  H   UNL     1      22.786   2.667   6.918  1.00  0.00     0.122 HD
ENDBRANCH   4   6
ENDBRANCH   2   4
BRANCH   2  13
ATOM     13  C   UNL     1      27.520   3.353   4.480  1.00  0.00     0.096 A 
ATOM     14  C   UNL     1      28.013   2.042   4.692  1.00  0.00     0.043 A 
ATOM     15  C   UNL     1      27.663   4.321   5.495  1.00  0.00     0.076 A 
ATOM     16  C   UNL     1      28.622   1.688   5.901  1.00  0.00     0.073 A 
ATOM     17  C   UNL     1      28.364   3.938   6.674  1.00  0.00     0.016 A 
ATOM     18  C   UNL     1      28.836   2.643   6.885  1.00  0.00     0.021 A 
BRANCH  15  19
ATOM     19  C   UNL     1      27.098   5.726   5.566  1.00  0.00     0.417 C 
ATOM     20  F   UNL     1      25.784   5.896   5.789  1.00  0.00    -0.166 F 
ATOM     21  F   UNL     1      27.716   6.436   6.559  1.00  0.00    -0.166 F 
ATOM     22  F   UNL     1      27.364   6.420   4.420  1.00  0.00    -0.166 F 
ENDBRANCH  15  19
BRANCH  16  23
ATOM     23  S   UNL     1      29.144   0.006   6.176  1.00  0.00     0.206 S 
ATOM     24  O   UNL     1      30.514  -0.089   5.711  1.00  0.00    -0.219 OA
ATOM     25  O   UNL     1      28.810  -0.327   7.550  1.00  0.00    -0.219 OA
BRANCH  23  26
ATOM     26  C   UNL     1      28.145  -1.027   5.123  1.00  0.00     0.072 A 
ATOM     27  C   UNL     1      26.854  -1.386   5.528  1.00  0.00     0.021 A 
ATOM     28  C   UNL     1      28.626  -1.411   3.866  1.00  0.00     0.021 A 
ATOM     29  C   UNL     1      26.054  -2.153   4.686  1.00  0.00     0.001 A 
ATOM     30  C   UNL     1      27.816  -2.178   3.025  1.00  0.00     0.001 A 
ATOM     31  C   UNL     1      26.534  -2.549   3.436  1.00  0.00     0.000 A 
ENDBRANCH  23  26
ENDBRANCH  16  23
ENDBRANCH   2  13
TORSDOF 6
ENDMDL
MODEL 14
REMARK VINA RESULT:    -2.671      3.290      5.874
REMARK INTER + INTRA:          -4.605
REMARK INTER:                  -5.218
REMARK INTRA:                   0.612
REMARK UNBOUND:                -0.997
REMARK SMILES O=S(=O)(NC1CCNCC1)c1cc(S(=O)(=O)c2ccccc2)ccc1C(F)(F)F
REMARK SMILES IDX 1 1 2 2 3 3 4 4 5 6 6 7 10 8 7 9 9 10 8 11 11 13 12 14 25 15
REMARK SMILES IDX 13 16 24 17 23 18 26 19 27 20 28 21 29 22 14 23 15 24 16 25
REMARK SMILES IDX 17 26 18 27 22 28 19 29 21 30 20 31
REMARK H PARENT 4 5 8 12
ROOT
ATOM      1  O   UNL     1      27.115   4.213   3.109  1.00  0.00    -0.207 OA
ATOM      2  S   UNL     1      26.995   3.903   4.507  1.00  0.00     0.241 S 
ATOM      3  O   UNL     1      28.157   3.708   5.346  1.00  0.00    -0.207 OA
ENDROOT
BRANCH   2   4
ATOM      4  N   UNL     1      26.130   5.190   5.216  1.00  0.00    -0.208 NA
ATOM      5  H   UNL     1      26.343   5.175   6.218  1.00  0.00     0.141 HD
BRANCH   4   6
ATOM      6  C   UNL     1      26.267   6.545   4.594  1.00  0.00     0.072 C 
ATOM      7  C   UNL     1      26.408   7.626   5.676  1.00  0.00     0.035 C 
ATOM      8  C   UNL     1      25.102   6.877   3.664  1.00  0.00     0.035 C 
ATOM      9  C   UNL     1      25.083   8.004   6.334  1.00  0.00     0.082 C 
ATOM     10  C   UNL     1      23.831   7.217   4.433  1.00  0.00     0.082 C 
ATOM     11  N   UNL     1      24.043   8.329   5.358  1.00  0.00    -0.317 NA
ATOM     12  H   UNL     1      24.305   9.165   4.836  1.00  0.00     0.122 HD
ENDBRANCH   4   6
ENDBRANCH   2   4
BRANCH   2  13
ATOM     13  C   UNL     1      25.955   2.472   4.796  1.00  0.00     0.096 A 
ATOM     14  C   UNL     1      26.661   1.245   4.848  1.00  0.00     0.043 A 
ATOM     15  C   UNL     1      24.547   2.465   4.838  1.00  0.00     0.076 A 
ATOM     16  C   UNL     1      25.979   0.024   4.919  1.00  0.00     0.073 A 
ATOM     17  C   UNL     1      23.899   1.206   4.996  1.00  0.00     0.016 A 
ATOM     18  C   UNL     1      24.597  -0.001   5.032  1.00  0.00     0.021 A 
BRANCH  15  19
ATOM     19  C   UNL     1      23.577   3.616   4.652  1.00  0.00     0.417 C 
ATOM     20  F   UNL     1      23.757   4.470   3.630  1.00  0.00    -0.166 F 
ATOM     21  F   UNL     1      22.304   3.141   4.491  1.00  0.00    -0.166 F 
ATOM     22  F   UNL     1      23.522   4.397   5.771  1.00  0.00    -0.166 F 
ENDBRANCH  15  19
BRANCH  16  23
ATOM     23  S   UNL     1      26.890  -1.507   4.884  1.00  0.00     0.206 S 
ATOM     24  O   UNL     1      27.349  -1.753   6.237  1.00  0.00    -0.219 OA
ATOM     25  O   UNL     1      26.059  -2.484   4.201  1.00  0.00    -0.219 OA
BRANCH  23  26
ATOM     26  C   UNL     1      28.328  -1.234   3.868  1.00  0.00     0.072 A 
ATOM     27  C   UNL     1      29.313  -2.225   3.782  1.00  0.00     0.021 A 
ATOM     28  C   UNL     1      28.429  -0.066   3.104  1.00  0.00     0.021 A 
ATOM     29  C   UNL     1      30.413  -2.035   2.951  1.00  0.00     0.001 A 
ATOM     30  C   UNL     1      29.535   0.116   2.269  1.00  0.00     0.001 A 
ATOM     31  C   UNL     1      30.524  -0.866   2.195  1.00  0.00     0.000 A 
ENDBRANCH  23  26
ENDBRANCH  16  23
ENDBRANCH   2  13
TORSDOF 6
ENDMDL
MODEL 15
REMARK VINA RESULT:    -2.664      3.206      5.615
REMARK INTER + INTRA:          -4.596
REMARK INTER:                  -3.798
REMARK INTRA:                  -0.798
REMARK UNBOUND:                -0.997
REMARK SMILES O=S(=O)(NC1CCNCC1)c1cc(S(=O)(=O)c2ccccc2)ccc1C(F)(F)F
REMARK SMILES IDX 1 1 2 2 3 3 4 4 5 6 6 7 10 8 7 9 9 10 8 11 11 13 12 14 25 15
REMARK SMILES IDX 13 16 24 17 23 18 26 19 27 20 28 21 29 22 14 23 15 24 16 25
REMARK SMILES IDX 17 26 18 27 22 28 19 29 21 30 20 31
REMARK H PARENT 4 5 8 12
ROOT
ATOM      1  O   UNL     1      23.407   2.311   4.296  1.00  0.00    -0.207 OA
ATOM      2  S   UNL     1      24.605   3.039   3.976  1.00  0.00     0.241 S 
ATOM      3  O   UNL     1      25.237   2.934   2.680  1.00  0.00    -0.207 OA
ENDROOT
BRANCH   2   4
ATOM      4  N   UNL     1      24.232   4.692   4.170  1.00  0.00    -0.208 NA
ATOM      5  H   UNL     1      24.158   4.864   5.178  1.00  0.00     0.141 HD
BRANCH   4   6
ATOM      6  C   UNL     1      25.092   5.686   3.454  1.00  0.00     0.072 C 
ATOM      7  C   UNL     1      26.556   5.557   3.899  1.00  0.00     0.035 C 
ATOM      8  C   UNL     1      24.605   7.121   3.649  1.00  0.00     0.035 C 
ATOM      9  C   UNL     1      26.840   6.206   5.252  1.00  0.00     0.082 C 
ATOM     10  C   UNL     1      24.926   7.654   5.040  1.00  0.00     0.082 C 
ATOM     11  N   UNL     1      26.358   7.585   5.325  1.00  0.00    -0.317 NA
ATOM     12  H   UNL     1      26.869   8.168   4.661  1.00  0.00     0.122 HD
ENDBRANCH   4   6
ENDBRANCH   2   4
BRANCH   2  13
ATOM     13  C   UNL     1      25.912   2.748   5.168  1.00  0.00     0.096 A 
ATOM     14  C   UNL     1      27.018   2.031   4.650  1.00  0.00     0.043 A 
ATOM     15  C   UNL     1      25.861   3.046   6.544  1.00  0.00     0.076 A 
ATOM     16  C   UNL     1      28.051   1.596   5.487  1.00  0.00     0.073 A 
ATOM     17  C   UNL     1      26.975   2.659   7.343  1.00  0.00     0.016 A 
ATOM     18  C   UNL     1      28.056   1.940   6.831  1.00  0.00     0.021 A 
BRANCH  15  19
ATOM     19  C   UNL     1      24.735   3.663   7.351  1.00  0.00     0.417 C 
ATOM     20  F   UNL     1      23.531   3.065   7.362  1.00  0.00    -0.166 F 
ATOM     21  F   UNL     1      25.091   3.756   8.668  1.00  0.00    -0.166 F 
ATOM     22  F   UNL     1      24.497   4.949   6.958  1.00  0.00    -0.166 F 
ENDBRANCH  15  19
BRANCH  16  23
ATOM     23  S   UNL     1      29.380   0.611   4.824  1.00  0.00     0.206 S 
ATOM     24  O   UNL     1      29.798   1.247   3.589  1.00  0.00    -0.219 OA
ATOM     25  O   UNL     1      30.334   0.398   5.899  1.00  0.00    -0.219 OA
BRANCH  23  26
ATOM     26  C   UNL     1      28.692  -0.978   4.406  1.00  0.00     0.072 A 
ATOM     27  C   UNL     1      27.387  -1.293   4.800  1.00  0.00     0.021 A 
ATOM     28  C   UNL     1      29.431  -1.871   3.621  1.00  0.00     0.021 A 
ATOM     29  C   UNL     1      26.829  -2.514   4.431  1.00  0.00     0.001 A 
ATOM     30  C   UNL     1      28.864  -3.093   3.252  1.00  0.00     0.001 A 
ATOM     31  C   UNL     1      27.567  -3.414   3.659  1.00  0.00     0.000 A 
ENDBRANCH  23  26
ENDBRANCH  16  23
ENDBRANCH   2  13
TORSDOF 6
ENDMDL
MODEL 16
REMARK VINA RESULT:    -2.380      3.546      5.987
REMARK INTER + INTRA:          -4.213
REMARK INTER:                  -3.474
REMARK INTRA:                  -0.739
REMARK UNBOUND:                -0.997
REMARK SMILES O=S(=O)(NC1CCNCC1)c1cc(S(=O)(=O)c2ccccc2)ccc1C(F)(F)F
REMARK SMILES IDX 1 1 2 2 3 3 4 4 5 6 6 7 10 8 7 9 9 10 8 11 11 13 12 14 25 15
REMARK SMILES IDX 13 16 24 17 23 18 26 19 27 20 28 21 29 22 14 23 15 24 16 25
REMARK SMILES IDX 17 26 18 27 22 28 19 29 21 30 20 31
REMARK H PARENT 4 5 8 12
ROOT
ATOM      1  O   UNL     1      23.757   3.841   6.435  1.00  0.00    -0.207 OA
ATOM      2  S   UNL     1      24.325   3.459   5.171  1.00  0.00     0.241 S 
ATOM      3  O   UNL     1      23.550   2.765   4.167  1.00  0.00    -0.207 OA
ENDROOT
BRANCH   2   4
ATOM      4  N   UNL     1      24.856   4.898   4.425  1.00  0.00    -0.208 NA
ATOM      5  H   UNL     1      25.175   4.645   3.485  1.00  0.00     0.141 HD
BRANCH   4   6
ATOM      6  C   UNL     1      23.930   6.074   4.447  1.00  0.00     0.072 C 
ATOM      7  C   UNL     1      24.057   6.888   3.150  1.00  0.00     0.035 C 
ATOM      8  C   UNL     1      24.164   6.973   5.660  1.00  0.00     0.035 C 
ATOM      9  C   UNL     1      25.289   7.790   3.117  1.00  0.00     0.082 C 
ATOM     10  C   UNL     1      25.430   7.810   5.521  1.00  0.00     0.082 C 
ATOM     11  N   UNL     1      25.404   8.628   4.310  1.00  0.00    -0.317 NA
ATOM     12  H   UNL     1      24.622   9.282   4.354  1.00  0.00     0.122 HD
ENDBRANCH   4   6
ENDBRANCH   2   4
BRANCH   2  13
ATOM     13  C   UNL     1      25.823   2.496   5.366  1.00  0.00     0.096 A 
ATOM     14  C   UNL     1      25.755   1.199   4.802  1.00  0.00     0.043 A 
ATOM     15  C   UNL     1      26.955   2.866   6.120  1.00  0.00     0.076 A 
ATOM     16  C   UNL     1      26.785   0.272   4.998  1.00  0.00     0.073 A 
ATOM     17  C   UNL     1      28.016   1.921   6.221  1.00  0.00     0.016 A 
ATOM     18  C   UNL     1      27.939   0.639   5.676  1.00  0.00     0.021 A 
BRANCH  15  19
ATOM     19  C   UNL     1      27.196   4.122   6.935  1.00  0.00     0.417 C 
ATOM     20  F   UNL     1      27.119   5.321   6.333  1.00  0.00    -0.166 F 
ATOM     21  F   UNL     1      26.306   4.193   7.970  1.00  0.00    -0.166 F 
ATOM     22  F   UNL     1      28.426   4.093   7.529  1.00  0.00    -0.166 F 
ENDBRANCH  15  19
BRANCH  16  23
ATOM     23  S   UNL     1      26.627  -1.384   4.359  1.00  0.00     0.206 S 
ATOM     24  O   UNL     1      26.304  -2.239   5.484  1.00  0.00    -0.219 OA
ATOM     25  O   UNL     1      25.740  -1.317   3.209  1.00  0.00    -0.219 OA
BRANCH  23  26
ATOM     26  C   UNL     1      28.234  -1.866   3.759  1.00  0.00     0.072 A 
ATOM     27  C   UNL     1      29.095  -0.898   3.230  1.00  0.00     0.021 A 
ATOM     28  C   UNL     1      28.655  -3.194   3.890  1.00  0.00     0.021 A 
ATOM     29  C   UNL     1      30.369  -1.264   2.806  1.00  0.00     0.001 A 
ATOM     30  C   UNL     1      29.937  -3.554   3.466  1.00  0.00     0.001 A 
ATOM     31  C   UNL     1      30.790  -2.590   2.924  1.00  0.00     0.000 A 
ENDBRANCH  23  26
ENDBRANCH  16  23
ENDBRANCH   2  13
TORSDOF 6
ENDMDL
