MODEL 1
REMARK VINA RESULT:    -6.501      0.000      0.000
REMARK INTER + INTRA:          -7.711
REMARK INTER:                  -7.831
REMARK INTRA:                   0.120
REMARK UNBOUND:                 0.120
REMARK  Name = 
REMARK  5 active torsions:
REMARK  status: ('A' for Active; 'I' for Inactive)
REMARK    1  A    between atoms: O_1  and  C_2
REMARK    2  A    between atoms: C_2  and  C_4
REMARK    3  A    between atoms: C_4  and  O_5
REMARK    4  A    between atoms: C_4  and  C_6
REMARK    5  A    between atoms: C_9  and  O_10
REMARK                            x       y       z     vdW  Elec       q    Type
REMARK                         _______ _______ _______ _____ _____    ______ ____
ROOT
ATOM      1  C   UNL     1      35.402  91.410  47.539  0.00  0.00    +0.000 A 
ATOM      2  C   UNL     1      34.772  92.665  47.645  0.00  0.00    +0.000 A 
ATOM      3  C   UNL     1      35.285  93.670  48.471  0.00  0.00    +0.000 A 
ATOM      4  C   UNL     1      36.432  93.423  49.212  0.00  0.00    +0.000 A 
ATOM      5  C   UNL     1      37.061  92.188  49.149  0.00  0.00    +0.000 A 
ATOM      6  C   UNL     1      36.544  91.181  48.325  0.00  0.00    +0.000 A 
ENDROOT
BRANCH   4   7
ATOM      7  O   UNL     1      36.971  94.374  50.026  0.00  0.00    +0.000 OA
ATOM      8  H   UNL     1      37.566  93.939  50.658  0.00  0.00    +0.000 HD
ENDBRANCH   4   7
BRANCH   1   9
ATOM      9  C   UNL     1      34.787  90.347  46.645  0.00  0.00    +0.000 C 
BRANCH   9  10
ATOM     10  C   UNL     1      35.773  89.281  46.121  0.00  0.00    +0.000 C 
ATOM     11  O   UNL     1      36.940  89.449  45.803  0.00  0.00    +0.000 OA
BRANCH  10  12
ATOM     12  O   UNL     1      35.160  88.066  46.006  0.00  0.00    +0.000 OA
ATOM     13  H   UNL     1      35.367  87.693  45.117  0.00  0.00    +0.000 HD
ENDBRANCH  10  12
ENDBRANCH   9  10
BRANCH   9  14
ATOM     14  O   UNL     1      33.719  89.616  47.281  0.00  0.00    +0.000 OA
ATOM     15  H   UNL     1      33.206  90.272  47.790  0.00  0.00    +0.000 HD
ENDBRANCH   9  14
ENDBRANCH   1   9
TORSDOF 5
ENDMDL
MODEL 2
REMARK VINA RESULT:    -5.859      9.804     11.307
REMARK INTER + INTRA:          -6.938
REMARK INTER:                  -6.783
REMARK INTRA:                  -0.154
REMARK UNBOUND:                 0.120
REMARK  Name = 
REMARK  5 active torsions:
REMARK  status: ('A' for Active; 'I' for Inactive)
REMARK    1  A    between atoms: O_1  and  C_2
REMARK    2  A    between atoms: C_2  and  C_4
REMARK    3  A    between atoms: C_4  and  O_5
REMARK    4  A    between atoms: C_4  and  C_6
REMARK    5  A    between atoms: C_9  and  O_10
REMARK                            x       y       z     vdW  Elec       q    Type
REMARK                         _______ _______ _______ _____ _____    ______ ____
ROOT
ATOM      1  C   UNL     1      30.543  83.375  52.195  0.00  0.00    +0.000 A 
ATOM      2  C   UNL     1      31.022  84.044  51.052  0.00  0.00    +0.000 A 
ATOM      3  C   UNL     1      30.193  84.295  49.955  0.00  0.00    +0.000 A 
ATOM      4  C   UNL     1      28.874  83.866  49.985  0.00  0.00    +0.000 A 
ATOM      5  C   UNL     1      28.380  83.182  51.087  0.00  0.00    +0.000 A 
ATOM      6  C   UNL     1      29.211  82.928  52.184  0.00  0.00    +0.000 A 
ENDROOT
BRANCH   4   7
ATOM      7  O   UNL     1      28.028  84.093  48.942  0.00  0.00    +0.000 OA
ATOM      8  H   UNL     1      27.352  84.729  49.224  0.00  0.00    +0.000 HD
ENDBRANCH   4   7
BRANCH   1   9
ATOM      9  C   UNL     1      31.495  83.108  53.349  0.00  0.00    +0.000 C 
BRANCH   9  10
ATOM     10  C   UNL     1      31.936  81.637  53.508  0.00  0.00    +0.000 C 
ATOM     11  O   UNL     1      31.640  80.873  54.412  0.00  0.00    +0.000 OA
BRANCH  10  12
ATOM     12  O   UNL     1      32.773  81.269  52.494  0.00  0.00    +0.000 OA
ATOM     13  H   UNL     1      32.569  81.819  51.702  0.00  0.00    +0.000 HD
ENDBRANCH  10  12
ENDBRANCH   9  10
BRANCH   9  14
ATOM     14  O   UNL     1      32.712  83.878  53.273  0.00  0.00    +0.000 OA
ATOM     15  H   UNL     1      32.949  84.105  54.192  0.00  0.00    +0.000 HD
ENDBRANCH   9  14
ENDBRANCH   1   9
TORSDOF 5
ENDMDL
MODEL 3
REMARK VINA RESULT:    -5.845     10.106     11.281
REMARK INTER + INTRA:          -6.921
REMARK INTER:                  -6.785
REMARK INTRA:                  -0.137
REMARK UNBOUND:                 0.120
REMARK  Name = 
REMARK  5 active torsions:
REMARK  status: ('A' for Active; 'I' for Inactive)
REMARK    1  A    between atoms: O_1  and  C_2
REMARK    2  A    between atoms: C_2  and  C_4
REMARK    3  A    between atoms: C_4  and  O_5
REMARK    4  A    between atoms: C_4  and  C_6
REMARK    5  A    between atoms: C_9  and  O_10
REMARK                            x       y       z     vdW  Elec       q    Type
REMARK                         _______ _______ _______ _____ _____    ______ ____
ROOT
ATOM      1  C   UNL     1      28.953  83.613  52.071  0.00  0.00    +0.000 A 
ATOM      2  C   UNL     1      29.733  84.420  52.922  0.00  0.00    +0.000 A 
ATOM      3  C   UNL     1      29.221  84.917  54.124  0.00  0.00    +0.000 A 
ATOM      4  C   UNL     1      27.913  84.622  54.482  0.00  0.00    +0.000 A 
ATOM      5  C   UNL     1      27.111  83.851  53.651  0.00  0.00    +0.000 A 
ATOM      6  C   UNL     1      27.624  83.357  52.446  0.00  0.00    +0.000 A 
ENDROOT
BRANCH   4   7
ATOM      7  O   UNL     1      27.373  85.081  55.645  0.00  0.00    +0.000 OA
ATOM      8  H   UNL     1      26.446  85.319  55.483  0.00  0.00    +0.000 HD
ENDBRANCH   4   7
BRANCH   1   9
ATOM      9  C   UNL     1      29.553  83.119  50.765  0.00  0.00    +0.000 C 
BRANCH   9  10
ATOM     10  C   UNL     1      29.222  83.978  49.525  0.00  0.00    +0.000 C 
ATOM     11  O   UNL     1      28.142  84.077  48.966  0.00  0.00    +0.000 OA
BRANCH  10  12
ATOM     12  O   UNL     1      30.336  84.622  49.068  0.00  0.00    +0.000 OA
ATOM     13  H   UNL     1      30.990  83.946  48.774  0.00  0.00    +0.000 HD
ENDBRANCH  10  12
ENDBRANCH   9  10
BRANCH   9  14
ATOM     14  O   UNL     1      30.991  83.019  50.801  0.00  0.00    +0.000 OA
ATOM     15  H   UNL     1      31.241  82.421  50.071  0.00  0.00    +0.000 HD
ENDBRANCH   9  14
ENDBRANCH   1   9
TORSDOF 5
ENDMDL
MODEL 4
REMARK VINA RESULT:    -5.632      9.135     10.707
REMARK INTER + INTRA:          -6.664
REMARK INTER:                  -6.527
REMARK INTRA:                  -0.137
REMARK UNBOUND:                 0.120
REMARK  Name = 
REMARK  5 active torsions:
REMARK  status: ('A' for Active; 'I' for Inactive)
REMARK    1  A    between atoms: O_1  and  C_2
REMARK    2  A    between atoms: C_2  and  C_4
REMARK    3  A    between atoms: C_4  and  O_5
REMARK    4  A    between atoms: C_4  and  C_6
REMARK    5  A    between atoms: C_9  and  O_10
REMARK                            x       y       z     vdW  Elec       q    Type
REMARK                         _______ _______ _______ _____ _____    ______ ____
ROOT
ATOM      1  C   UNL     1      30.937  84.599  52.030  0.00  0.00    +0.000 A 
ATOM      2  C   UNL     1      31.116  84.976  50.685  0.00  0.00    +0.000 A 
ATOM      3  C   UNL     1      30.225  84.564  49.689  0.00  0.00    +0.000 A 
ATOM      4  C   UNL     1      29.149  83.756  50.029  0.00  0.00    +0.000 A 
ATOM      5  C   UNL     1      28.961  83.347  51.342  0.00  0.00    +0.000 A 
ATOM      6  C   UNL     1      29.855  83.757  52.337  0.00  0.00    +0.000 A 
ENDROOT
BRANCH   4   7
ATOM      7  O   UNL     1      28.253  83.335  49.094  0.00  0.00    +0.000 OA
ATOM      8  H   UNL     1      27.368  83.331  49.493  0.00  0.00    +0.000 HD
ENDBRANCH   4   7
BRANCH   1   9
ATOM      9  C   UNL     1      31.950  85.056  53.067  0.00  0.00    +0.000 C 
BRANCH   9  10
ATOM     10  C   UNL     1      31.350  85.490  54.421  0.00  0.00    +0.000 C 
ATOM     11  O   UNL     1      30.810  86.554  54.680  0.00  0.00    +0.000 OA
BRANCH  10  12
ATOM     12  O   UNL     1      31.533  84.522  55.366  0.00  0.00    +0.000 OA
ATOM     13  H   UNL     1      30.793  84.573  56.016  0.00  0.00    +0.000 HD
ENDBRANCH  10  12
ENDBRANCH   9  10
BRANCH   9  14
ATOM     14  O   UNL     1      32.938  84.053  53.378  0.00  0.00    +0.000 OA
ATOM     15  H   UNL     1      33.630  84.504  53.898  0.00  0.00    +0.000 HD
ENDBRANCH   9  14
ENDBRANCH   1   9
TORSDOF 5
ENDMDL
MODEL 5
REMARK VINA RESULT:    -5.628      8.642      9.507
REMARK INTER + INTRA:          -6.660
REMARK INTER:                  -6.669
REMARK INTRA:                   0.008
REMARK UNBOUND:                 0.120
REMARK  Name = 
REMARK  5 active torsions:
REMARK  status: ('A' for Active; 'I' for Inactive)
REMARK    1  A    between atoms: O_1  and  C_2
REMARK    2  A    between atoms: C_2  and  C_4
REMARK    3  A    between atoms: C_4  and  O_5
REMARK    4  A    between atoms: C_4  and  C_6
REMARK    5  A    between atoms: C_9  and  O_10
REMARK                            x       y       z     vdW  Elec       q    Type
REMARK                         _______ _______ _______ _____ _____    ______ ____
ROOT
ATOM      1  C   UNL     1      30.305  84.631  51.962  0.00  0.00    +0.000 A 
ATOM      2  C   UNL     1      29.549  84.627  53.150  0.00  0.00    +0.000 A 
ATOM      3  C   UNL     1      29.790  85.554  54.169  0.00  0.00    +0.000 A 
ATOM      4  C   UNL     1      30.803  86.490  54.013  0.00  0.00    +0.000 A 
ATOM      5  C   UNL     1      31.583  86.501  52.865  0.00  0.00    +0.000 A 
ATOM      6  C   UNL     1      31.343  85.571  51.848  0.00  0.00    +0.000 A 
ENDROOT
BRANCH   4   7
ATOM      7  O   UNL     1      31.071  87.415  54.976  0.00  0.00    +0.000 OA
ATOM      8  H   UNL     1      30.241  87.644  55.424  0.00  0.00    +0.000 HD
ENDBRANCH   4   7
BRANCH   1   9
ATOM      9  C   UNL     1      30.016  83.585  50.898  0.00  0.00    +0.000 C 
BRANCH   9  10
ATOM     10  C   UNL     1      29.452  84.138  49.572  0.00  0.00    +0.000 C 
ATOM     11  O   UNL     1      28.309  84.031  49.156  0.00  0.00    +0.000 OA
BRANCH  10  12
ATOM     12  O   UNL     1      30.430  84.760  48.850  0.00  0.00    +0.000 OA
ATOM     13  H   UNL     1      30.603  84.233  48.035  0.00  0.00    +0.000 HD
ENDBRANCH  10  12
ENDBRANCH   9  10
BRANCH   9  14
ATOM     14  O   UNL     1      31.174  82.804  50.538  0.00  0.00    +0.000 OA
ATOM     15  H   UNL     1      30.940  81.873  50.716  0.00  0.00    +0.000 HD
ENDBRANCH   9  14
ENDBRANCH   1   9
TORSDOF 5
ENDMDL
MODEL 6
REMARK VINA RESULT:    -5.557      9.321     10.277
REMARK INTER + INTRA:          -6.574
REMARK INTER:                  -6.410
REMARK INTRA:                  -0.165
REMARK UNBOUND:                 0.120
REMARK  Name = 
REMARK  5 active torsions:
REMARK  status: ('A' for Active; 'I' for Inactive)
REMARK    1  A    between atoms: O_1  and  C_2
REMARK    2  A    between atoms: C_2  and  C_4
REMARK    3  A    between atoms: C_4  and  O_5
REMARK    4  A    between atoms: C_4  and  C_6
REMARK    5  A    between atoms: C_9  and  O_10
REMARK                            x       y       z     vdW  Elec       q    Type
REMARK                         _______ _______ _______ _____ _____    ______ ____
ROOT
ATOM      1  C   UNL     1      30.064  83.763  52.024  0.00  0.00    +0.000 A 
ATOM      2  C   UNL     1      30.648  84.998  51.679  0.00  0.00    +0.000 A 
ATOM      3  C   UNL     1      31.831  85.437  52.281  0.00  0.00    +0.000 A 
ATOM      4  C   UNL     1      32.438  84.647  53.247  0.00  0.00    +0.000 A 
ATOM      5  C   UNL     1      31.873  83.437  53.626  0.00  0.00    +0.000 A 
ATOM      6  C   UNL     1      30.687  83.001  53.026  0.00  0.00    +0.000 A 
ENDROOT
BRANCH   4   7
ATOM      7  O   UNL     1      33.595  85.031  53.856  0.00  0.00    +0.000 OA
ATOM      8  H   UNL     1      34.305  85.040  53.195  0.00  0.00    +0.000 HD
ENDBRANCH   4   7
BRANCH   1   9
ATOM      9  C   UNL     1      28.765  83.347  51.355  0.00  0.00    +0.000 C 
BRANCH   9  10
ATOM     10  C   UNL     1      28.809  83.292  49.813  0.00  0.00    +0.000 C 
ATOM     11  O   UNL     1      28.203  84.007  49.032  0.00  0.00    +0.000 OA
BRANCH  10  12
ATOM     12  O   UNL     1      29.613  82.273  49.387  0.00  0.00    +0.000 OA
ATOM     13  H   UNL     1      30.466  82.319  49.879  0.00  0.00    +0.000 HD
ENDBRANCH  10  12
ENDBRANCH   9  10
BRANCH   9  14
ATOM     14  O   UNL     1      28.294  82.053  51.782  0.00  0.00    +0.000 OA
ATOM     15  H   UNL     1      29.086  81.550  52.052  0.00  0.00    +0.000 HD
ENDBRANCH   9  14
ENDBRANCH   1   9
TORSDOF 5
ENDMDL
MODEL 7
REMARK VINA RESULT:    -5.351     10.420     11.919
REMARK INTER + INTRA:          -6.326
REMARK INTER:                  -6.197
REMARK INTRA:                  -0.129
REMARK UNBOUND:                 0.120
REMARK  Name = 
REMARK  5 active torsions:
REMARK  status: ('A' for Active; 'I' for Inactive)
REMARK    1  A    between atoms: O_1  and  C_2
REMARK    2  A    between atoms: C_2  and  C_4
REMARK    3  A    between atoms: C_4  and  O_5
REMARK    4  A    between atoms: C_4  and  C_6
REMARK    5  A    between atoms: C_9  and  O_10
REMARK                            x       y       z     vdW  Elec       q    Type
REMARK                         _______ _______ _______ _____ _____    ______ ____
ROOT
ATOM      1  C   UNL     1      28.666  83.218  52.140  0.00  0.00    +0.000 A 
ATOM      2  C   UNL     1      28.105  83.058  50.858  0.00  0.00    +0.000 A 
ATOM      3  C   UNL     1      28.729  83.577  49.721  0.00  0.00    +0.000 A 
ATOM      4  C   UNL     1      29.921  84.276  49.856  0.00  0.00    +0.000 A 
ATOM      5  C   UNL     1      30.485  84.473  51.109  0.00  0.00    +0.000 A 
ATOM      6  C   UNL     1      29.857  83.956  52.247  0.00  0.00    +0.000 A 
ENDROOT
BRANCH   4   7
ATOM      7  O   UNL     1      30.568  84.796  48.775  0.00  0.00    +0.000 OA
ATOM      8  H   UNL     1      31.308  85.338  49.089  0.00  0.00    +0.000 HD
ENDBRANCH   4   7
BRANCH   1   9
ATOM      9  C   UNL     1      27.932  82.653  53.345  0.00  0.00    +0.000 C 
BRANCH   9  10
ATOM     10  C   UNL     1      28.498  83.081  54.716  0.00  0.00    +0.000 C 
ATOM     11  O   UNL     1      29.313  82.480  55.397  0.00  0.00    +0.000 OA
BRANCH  10  12
ATOM     12  O   UNL     1      27.928  84.250  55.133  0.00  0.00    +0.000 OA
ATOM     13  H   UNL     1      28.274  84.466  56.030  0.00  0.00    +0.000 HD
ENDBRANCH  10  12
ENDBRANCH   9  10
BRANCH   9  14
ATOM     14  O   UNL     1      26.533  82.998  53.371  0.00  0.00    +0.000 OA
ATOM     15  H   UNL     1      26.376  83.562  52.591  0.00  0.00    +0.000 HD
ENDBRANCH   9  14
ENDBRANCH   1   9
TORSDOF 5
ENDMDL
MODEL 8
REMARK VINA RESULT:    -5.277     10.572     12.018
REMARK INTER + INTRA:          -6.237
REMARK INTER:                  -6.075
REMARK INTRA:                  -0.163
REMARK UNBOUND:                 0.120
REMARK  Name = 
REMARK  5 active torsions:
REMARK  status: ('A' for Active; 'I' for Inactive)
REMARK    1  A    between atoms: O_1  and  C_2
REMARK    2  A    between atoms: C_2  and  C_4
REMARK    3  A    between atoms: C_4  and  O_5
REMARK    4  A    between atoms: C_4  and  C_6
REMARK    5  A    between atoms: C_9  and  O_10
REMARK                            x       y       z     vdW  Elec       q    Type
REMARK                         _______ _______ _______ _____ _____    ______ ____
ROOT
ATOM      1  C   UNL     1      28.763  83.386  52.293  0.00  0.00    +0.000 A 
ATOM      2  C   UNL     1      29.936  84.162  52.356  0.00  0.00    +0.000 A 
ATOM      3  C   UNL     1      30.560  84.634  51.198  0.00  0.00    +0.000 A 
ATOM      4  C   UNL     1      30.022  84.321  49.958  0.00  0.00    +0.000 A 
ATOM      5  C   UNL     1      28.881  83.536  49.862  0.00  0.00    +0.000 A 
ATOM      6  C   UNL     1      28.259  83.061  51.022  0.00  0.00    +0.000 A 
ENDROOT
BRANCH   4   7
ATOM      7  O   UNL     1      30.592  84.762  48.802  0.00  0.00    +0.000 OA
ATOM      8  H   UNL     1      29.913  84.780  48.109  0.00  0.00    +0.000 HD
ENDBRANCH   4   7
BRANCH   1   9
ATOM      9  C   UNL     1      28.141  82.879  53.584  0.00  0.00    +0.000 C 
BRANCH   9  10
ATOM     10  C   UNL     1      28.166  81.347  53.766  0.00  0.00    +0.000 C 
ATOM     11  O   UNL     1      27.209  80.610  53.947  0.00  0.00    +0.000 OA
BRANCH  10  12
ATOM     12  O   UNL     1      29.447  80.876  53.744  0.00  0.00    +0.000 OA
ATOM     13  H   UNL     1      30.005  81.456  54.313  0.00  0.00    +0.000 HD
ENDBRANCH  10  12
ENDBRANCH   9  10
BRANCH   9  14
ATOM     14  O   UNL     1      28.758  83.427  54.766  0.00  0.00    +0.000 OA
ATOM     15  H   UNL     1      28.055  83.479  55.441  0.00  0.00    +0.000 HD
ENDBRANCH   9  14
ENDBRANCH   1   9
TORSDOF 5
ENDMDL
MODEL 9
REMARK VINA RESULT:    -5.206      5.484      8.104
REMARK INTER + INTRA:          -6.152
REMARK INTER:                  -6.011
REMARK INTRA:                  -0.140
REMARK UNBOUND:                 0.120
REMARK  Name = 
REMARK  5 active torsions:
REMARK  status: ('A' for Active; 'I' for Inactive)
REMARK    1  A    between atoms: O_1  and  C_2
REMARK    2  A    between atoms: C_2  and  C_4
REMARK    3  A    between atoms: C_4  and  O_5
REMARK    4  A    between atoms: C_4  and  C_6
REMARK    5  A    between atoms: C_9  and  O_10
REMARK                            x       y       z     vdW  Elec       q    Type
REMARK                         _______ _______ _______ _____ _____    ______ ____
ROOT
ATOM      1  C   UNL     1      32.092  96.663  49.599  0.00  0.00    +0.000 A 
ATOM      2  C   UNL     1      32.001  96.279  48.247  0.00  0.00    +0.000 A 
ATOM      3  C   UNL     1      32.440  95.024  47.816  0.00  0.00    +0.000 A 
ATOM      4  C   UNL     1      32.989  94.141  48.736  0.00  0.00    +0.000 A 
ATOM      5  C   UNL     1      33.117  94.501  50.070  0.00  0.00    +0.000 A 
ATOM      6  C   UNL     1      32.680  95.760  50.500  0.00  0.00    +0.000 A 
ENDROOT
BRANCH   4   7
ATOM      7  O   UNL     1      33.426  92.906  48.363  0.00  0.00    +0.000 OA
ATOM      8  H   UNL     1      33.608  92.916  47.410  0.00  0.00    +0.000 HD
ENDBRANCH   4   7
BRANCH   1   9
ATOM      9  C   UNL     1      31.621  98.049  50.007  0.00  0.00    +0.000 C 
BRANCH   9  10
ATOM     10  C   UNL     1      30.110  98.168  50.300  0.00  0.00    +0.000 C 
ATOM     11  O   UNL     1      29.456  97.497  51.081  0.00  0.00    +0.000 OA
BRANCH  10  12
ATOM     12  O   UNL     1      29.539  99.131  49.518  0.00  0.00    +0.000 OA
ATOM     13  H   UNL     1      28.969  98.692  48.844  0.00  0.00    +0.000 HD
ENDBRANCH  10  12
ENDBRANCH   9  10
BRANCH   9  14
ATOM     14  O   UNL     1      32.290  98.555  51.180  0.00  0.00    +0.000 OA
ATOM     15  H   UNL     1      32.603  99.450  50.950  0.00  0.00    +0.000 HD
ENDBRANCH   9  14
ENDBRANCH   1   9
TORSDOF 5
ENDMDL
