MODEL 1
REMARK VINA RESULT:   -11.568      0.000      0.000
REMARK INTER + INTRA:         -19.385
REMARK INTER:                 -18.331
REMARK INTRA:                  -1.055
REMARK UNBOUND:                -1.055
REMARK  Name = 
REMARK  11 active torsions:
REMARK  status: ('A' for Active; 'I' for Inactive)
REMARK    1  A    between atoms: C_6  and  C_9
REMARK    2  A    between atoms: CA_11  and  C_26
REMARK    3  A    between atoms: C_12  and  C_14
REMARK    4  A    between atoms: C_14  and  C_15
REMARK    5  A    between atoms: C_15  and  C_16
REMARK    6  A    between atoms: C_16  and  O_17
REMARK    7  A    between atoms: O_17  and  C_18
REMARK    8  A    between atoms: C_21  and  C_24
REMARK    9  A    between atoms: C_24  and  N_25
REMARK   10  A    between atoms: C_26  and  OXT_28
REMARK   11  A    between atoms: N_30  and  N_31
REMARK                            x       y       z     vdW  Elec       q    Type
REMARK                         _______ _______ _______ _____ _____    ______ ____
ROOT
ATOM      1  C   UNL     1     -17.908 -15.774 -46.379  0.00  0.00    +0.000 A 
ATOM      2  N   UNL     1     -17.072 -16.719 -46.749  0.00  0.00    +0.000 NA
ATOM      3  CA  UNL     1     -15.864 -16.159 -47.199  0.00  0.00    +0.000 A 
ATOM      4  C   UNL     1     -15.802 -14.773 -47.137  0.00  0.00    +0.000 A 
ATOM      5  S   UNL     1     -17.311 -14.179 -46.580  0.00  0.00    +0.000 S 
ENDROOT
BRANCH   1  11
ATOM      6  C   UNL     1     -24.230 -15.985 -44.756  0.00  0.00    +0.000 C 
ATOM      7  C   UNL     1     -23.133 -16.735 -44.004  0.00  0.00    +0.000 C 
ATOM      8  C   UNL     1     -21.800 -16.526 -44.665  0.00  0.00    +0.000 A 
ATOM      9  C   UNL     1     -21.524 -15.328 -45.320  0.00  0.00    +0.000 A 
ATOM     10  C   UNL     1     -20.265 -15.096 -45.885  0.00  0.00    +0.000 A 
ATOM     11  C   UNL     1     -19.246 -16.042 -45.811  0.00  0.00    +0.000 A 
ATOM     12  C   UNL     1     -19.528 -17.251 -45.163  0.00  0.00    +0.000 A 
ATOM     13  C   UNL     1     -20.787 -17.489 -44.591  0.00  0.00    +0.000 A 
ATOM     14  C   UNL     1     -22.546 -14.250 -45.437  0.00  0.00    +0.000 C 
ATOM     15  N   UNL     1     -22.130 -13.151 -45.976  0.00  0.00    +0.000 NA
ATOM     16  C   UNL     1     -23.923 -14.495 -44.864  0.00  0.00    +0.000 C 
BRANCH  15  17
ATOM     17  N   UNL     1     -22.906 -12.073 -46.148  0.00  0.00    +0.000 N 
ATOM     18  C   UNL     1     -22.381 -10.819 -46.140  0.00  0.00    +0.000 A 
ATOM     19  N   UNL     1     -23.111  -9.744 -46.296  0.00  0.00    +0.000 NA
ATOM     20  C   UNL     1     -22.365  -8.632 -45.965  0.00  0.00    +0.000 A 
ATOM     21  C   UNL     1     -22.862  -7.321 -45.869  0.00  0.00    +0.000 A 
ATOM     22  C   UNL     1     -22.255  -6.616 -44.832  0.00  0.00    +0.000 A 
ATOM     23  C   UNL     1     -20.894  -6.755 -44.592  0.00  0.00    +0.000 A 
ATOM     24  C   UNL     1     -20.205  -7.837 -45.138  0.00  0.00    +0.000 A 
ATOM     25  C   UNL     1     -21.024  -8.858 -45.645  0.00  0.00    +0.000 A 
ATOM     26  S   UNL     1     -20.685 -10.513 -45.909  0.00  0.00    +0.000 S 
ATOM     27  H   UNL     1     -23.914 -12.137 -46.247  0.00  0.00    +0.000 HD
ENDBRANCH  15  17
ENDBRANCH   1  11
BRANCH   3  28
ATOM     28  C   UNL     1     -14.849 -17.087 -47.665  0.00  0.00    +0.000 C 
ATOM     29  O   UNL     1     -14.889 -17.712 -48.737  0.00  0.00    +0.000 OA
BRANCH  28  30
ATOM     30  OXT UNL     1     -13.836 -17.231 -46.778  0.00  0.00    +0.000 OA
ATOM     31  HXT UNL     1     -13.001 -17.163 -47.305  0.00  0.00    +0.000 HD
ENDBRANCH  28  30
ENDBRANCH   3  28
BRANCH   4  32
ATOM     32  C   UNL     1     -14.715 -13.796 -47.500  0.00  0.00    +0.000 C 
BRANCH  32  33
ATOM     33  C   UNL     1     -14.598 -13.520 -49.006  0.00  0.00    +0.000 C 
BRANCH  33  34
ATOM     34  C   UNL     1     -13.202 -13.077 -49.445  0.00  0.00    +0.000 C 
BRANCH  34  35
ATOM     35  O   UNL     1     -12.728 -12.027 -48.589  0.00  0.00    +0.000 OA
BRANCH  35  36
ATOM     36  C   UNL     1     -11.658 -11.307 -49.051  0.00  0.00    +0.000 A 
ATOM     37  C   UNL     1     -11.391  -9.987 -48.704  0.00  0.00    +0.000 A 
ATOM     38  C   UNL     1     -10.279  -9.329 -49.234  0.00  0.00    +0.000 A 
ATOM     39  C   UNL     1      -9.403  -9.979 -50.115  0.00  0.00    +0.000 A 
ATOM     40  C   UNL     1      -9.649 -11.328 -50.414  0.00  0.00    +0.000 A 
ATOM     41  C   UNL     1     -10.764 -11.988 -49.880  0.00  0.00    +0.000 A 
BRANCH  39  42
ATOM     42  C   UNL     1      -8.208  -9.291 -50.737  0.00  0.00    +0.000 C 
BRANCH  42  43
ATOM     43  N   UNL     1      -7.684  -8.174 -49.951  0.00  0.00    +0.000 NA
ATOM     44  H   UNL     1      -8.468  -7.706 -49.498  0.00  0.00    +0.000 HD
ATOM     45  H   UNL     1      -7.280  -7.487 -50.583  0.00  0.00    +0.000 HD
ENDBRANCH  42  43
ENDBRANCH  39  42
ENDBRANCH  35  36
ENDBRANCH  34  35
ENDBRANCH  33  34
ENDBRANCH  32  33
ENDBRANCH   4  32
TORSDOF 11
ENDMDL
MODEL 2
REMARK VINA RESULT:   -10.387      3.527     10.293
REMARK INTER + INTRA:         -17.514
REMARK INTER:                 -16.702
REMARK INTRA:                  -0.812
REMARK UNBOUND:                -1.055
REMARK  Name = 
REMARK  11 active torsions:
REMARK  status: ('A' for Active; 'I' for Inactive)
REMARK    1  A    between atoms: C_6  and  C_9
REMARK    2  A    between atoms: CA_11  and  C_26
REMARK    3  A    between atoms: C_12  and  C_14
REMARK    4  A    between atoms: C_14  and  C_15
REMARK    5  A    between atoms: C_15  and  C_16
REMARK    6  A    between atoms: C_16  and  O_17
REMARK    7  A    between atoms: O_17  and  C_18
REMARK    8  A    between atoms: C_21  and  C_24
REMARK    9  A    between atoms: C_24  and  N_25
REMARK   10  A    between atoms: C_26  and  OXT_28
REMARK   11  A    between atoms: N_30  and  N_31
REMARK                            x       y       z     vdW  Elec       q    Type
REMARK                         _______ _______ _______ _____ _____    ______ ____
ROOT
ATOM      1  C   UNL     1     -16.105 -17.111 -47.661  0.00  0.00    +0.000 A 
ATOM      2  N   UNL     1     -17.012 -17.743 -46.949  0.00  0.00    +0.000 NA
ATOM      3  CA  UNL     1     -17.770 -16.832 -46.195  0.00  0.00    +0.000 A 
ATOM      4  C   UNL     1     -17.431 -15.498 -46.374  0.00  0.00    +0.000 A 
ATOM      5  S   UNL     1     -16.091 -15.409 -47.441  0.00  0.00    +0.000 S 
ENDROOT
BRANCH   1  11
ATOM      6  C   UNL     1     -11.219 -19.001 -51.559  0.00  0.00    +0.000 C 
ATOM      7  C   UNL     1     -12.567 -19.714 -51.477  0.00  0.00    +0.000 C 
ATOM      8  C   UNL     1     -13.447 -19.067 -50.444  0.00  0.00    +0.000 A 
ATOM      9  C   UNL     1     -13.347 -17.700 -50.198  0.00  0.00    +0.000 A 
ATOM     10  C   UNL     1     -14.203 -17.074 -49.284  0.00  0.00    +0.000 A 
ATOM     11  C   UNL     1     -15.182 -17.786 -48.595  0.00  0.00    +0.000 A 
ATOM     12  C   UNL     1     -15.273 -19.163 -48.834  0.00  0.00    +0.000 A 
ATOM     13  C   UNL     1     -14.420 -19.796 -49.752  0.00  0.00    +0.000 A 
ATOM     14  C   UNL     1     -12.341 -16.853 -50.897  0.00  0.00    +0.000 C 
ATOM     15  N   UNL     1     -12.423 -15.585 -50.657  0.00  0.00    +0.000 NA
ATOM     16  C   UNL     1     -11.384 -17.515 -51.862  0.00  0.00    +0.000 C 
BRANCH  15  17
ATOM     17  N   UNL     1     -11.610 -14.675 -51.209  0.00  0.00    +0.000 N 
ATOM     18  C   UNL     1     -11.147 -13.618 -50.490  0.00  0.00    +0.000 A 
ATOM     19  N   UNL     1     -10.359 -12.704 -51.000  0.00  0.00    +0.000 NA
ATOM     20  C   UNL     1     -10.287 -11.630 -50.138  0.00  0.00    +0.000 A 
ATOM     21  C   UNL     1      -9.656 -10.406 -50.419  0.00  0.00    +0.000 A 
ATOM     22  C   UNL     1     -10.350  -9.331 -49.867  0.00  0.00    +0.000 A 
ATOM     23  C   UNL     1     -10.910  -9.434 -48.600  0.00  0.00    +0.000 A 
ATOM     24  C   UNL     1     -11.088 -10.692 -48.026  0.00  0.00    +0.000 A 
ATOM     25  C   UNL     1     -10.952 -11.768 -48.917  0.00  0.00    +0.000 A 
ATOM     26  S   UNL     1     -11.564 -13.362 -48.822  0.00  0.00    +0.000 S 
ATOM     27  H   UNL     1     -11.340 -14.705 -52.187  0.00  0.00    +0.000 HD
ENDBRANCH  15  17
ENDBRANCH   1  11
BRANCH   3  28
ATOM     28  C   UNL     1     -18.799 -17.393 -45.337  0.00  0.00    +0.000 C 
ATOM     29  O   UNL     1     -19.827 -16.801 -44.972  0.00  0.00    +0.000 OA
BRANCH  28  30
ATOM     30  OXT UNL     1     -18.506 -18.654 -44.938  0.00  0.00    +0.000 OA
ATOM     31  HXT UNL     1     -17.607 -18.607 -44.527  0.00  0.00    +0.000 HD
ENDBRANCH  28  30
ENDBRANCH   3  28
BRANCH   4  32
ATOM     32  C   UNL     1     -17.986 -14.229 -45.783  0.00  0.00    +0.000 C 
BRANCH  32  33
ATOM     33  C   UNL     1     -19.399 -13.876 -46.269  0.00  0.00    +0.000 C 
BRANCH  33  34
ATOM     34  C   UNL     1     -19.677 -12.374 -46.320  0.00  0.00    +0.000 C 
BRANCH  34  35
ATOM     35  O   UNL     1     -20.983 -12.097 -45.792  0.00  0.00    +0.000 OA
BRANCH  35  36
ATOM     36  C   UNL     1     -21.279 -10.778 -45.570  0.00  0.00    +0.000 A 
ATOM     37  C   UNL     1     -22.506 -10.191 -45.855  0.00  0.00    +0.000 A 
ATOM     38  C   UNL     1     -22.714  -8.832 -45.605  0.00  0.00    +0.000 A 
ATOM     39  C   UNL     1     -21.703  -8.033 -45.053  0.00  0.00    +0.000 A 
ATOM     40  C   UNL     1     -20.487  -8.648 -44.715  0.00  0.00    +0.000 A 
ATOM     41  C   UNL     1     -20.281 -10.012 -44.965  0.00  0.00    +0.000 A 
BRANCH  39  42
ATOM     42  C   UNL     1     -21.877  -6.553 -44.798  0.00  0.00    +0.000 C 
BRANCH  42  43
ATOM     43  N   UNL     1     -20.637  -5.781 -44.882  0.00  0.00    +0.000 NA
ATOM     44  H   UNL     1     -20.874  -4.790 -44.837  0.00  0.00    +0.000 HD
ATOM     45  H   UNL     1     -20.220  -5.925 -45.799  0.00  0.00    +0.000 HD
ENDBRANCH  42  43
ENDBRANCH  39  42
ENDBRANCH  35  36
ENDBRANCH  34  35
ENDBRANCH  33  34
ENDBRANCH  32  33
ENDBRANCH   4  32
TORSDOF 11
ENDMDL
MODEL 3
REMARK VINA RESULT:   -10.004      4.730     12.100
REMARK INTER + INTRA:         -16.907
REMARK INTER:                 -15.998
REMARK INTRA:                  -0.909
REMARK UNBOUND:                -1.055
REMARK  Name = 
REMARK  11 active torsions:
REMARK  status: ('A' for Active; 'I' for Inactive)
REMARK    1  A    between atoms: C_6  and  C_9
REMARK    2  A    between atoms: CA_11  and  C_26
REMARK    3  A    between atoms: C_12  and  C_14
REMARK    4  A    between atoms: C_14  and  C_15
REMARK    5  A    between atoms: C_15  and  C_16
REMARK    6  A    between atoms: C_16  and  O_17
REMARK    7  A    between atoms: O_17  and  C_18
REMARK    8  A    between atoms: C_21  and  C_24
REMARK    9  A    between atoms: C_24  and  N_25
REMARK   10  A    between atoms: C_26  and  OXT_28
REMARK   11  A    between atoms: N_30  and  N_31
REMARK                            x       y       z     vdW  Elec       q    Type
REMARK                         _______ _______ _______ _____ _____    ______ ____
ROOT
ATOM      1  C   UNL     1     -15.455 -15.101 -47.748  0.00  0.00    +0.000 A 
ATOM      2  N   UNL     1     -15.859 -16.352 -47.715  0.00  0.00    +0.000 NA
ATOM      3  CA  UNL     1     -16.994 -16.482 -46.897  0.00  0.00    +0.000 A 
ATOM      4  C   UNL     1     -17.450 -15.297 -46.336  0.00  0.00    +0.000 A 
ATOM      5  S   UNL     1     -16.386 -14.030 -46.784  0.00  0.00    +0.000 S 
ENDROOT
BRANCH   1  11
ATOM      6  C   UNL     1     -10.169 -14.369 -51.511  0.00  0.00    +0.000 C 
ATOM      7  C   UNL     1     -10.869 -13.217 -50.795  0.00  0.00    +0.000 C 
ATOM      8  C   UNL     1     -12.086 -13.710 -50.063  0.00  0.00    +0.000 A 
ATOM      9  C   UNL     1     -12.109 -14.997 -49.534  0.00  0.00    +0.000 A 
ATOM     10  C   UNL     1     -13.210 -15.447 -48.796  0.00  0.00    +0.000 A 
ATOM     11  C   UNL     1     -14.313 -14.631 -48.560  0.00  0.00    +0.000 A 
ATOM     12  C   UNL     1     -14.294 -13.340 -49.102  0.00  0.00    +0.000 A 
ATOM     13  C   UNL     1     -13.192 -12.882 -49.840  0.00  0.00    +0.000 A 
ATOM     14  C   UNL     1     -10.970 -15.939 -49.721  0.00  0.00    +0.000 C 
ATOM     15  N   UNL     1     -11.072 -17.064 -49.092  0.00  0.00    +0.000 NA
ATOM     16  C   UNL     1      -9.786 -15.485 -50.545  0.00  0.00    +0.000 C 
BRANCH  15  17
ATOM     17  N   UNL     1     -10.138 -18.022 -49.135  0.00  0.00    +0.000 N 
ATOM     18  C   UNL     1      -9.205 -18.139 -48.153  0.00  0.00    +0.000 A 
ATOM     19  N   UNL     1      -8.271 -19.056 -48.168  0.00  0.00    +0.000 NA
ATOM     20  C   UNL     1      -7.321 -18.758 -47.213  0.00  0.00    +0.000 A 
ATOM     21  C   UNL     1      -6.101 -19.436 -47.043  0.00  0.00    +0.000 A 
ATOM     22  C   UNL     1      -5.076 -18.566 -46.680  0.00  0.00    +0.000 A 
ATOM     23  C   UNL     1      -5.315 -17.537 -45.779  0.00  0.00    +0.000 A 
ATOM     24  C   UNL     1      -6.627 -17.152 -45.504  0.00  0.00    +0.000 A 
ATOM     25  C   UNL     1      -7.584 -17.653 -46.401  0.00  0.00    +0.000 A 
ATOM     26  S   UNL     1      -9.147 -17.071 -46.782  0.00  0.00    +0.000 S 
ATOM     27  H   UNL     1     -10.055 -18.669 -49.912  0.00  0.00    +0.000 HD
ENDBRANCH  15  17
ENDBRANCH   1  11
BRANCH   3  28
ATOM     28  C   UNL     1     -17.539 -17.820 -46.747  0.00  0.00    +0.000 C 
ATOM     29  O   UNL     1     -18.067 -18.265 -45.715  0.00  0.00    +0.000 OA
BRANCH  28  30
ATOM     30  OXT UNL     1     -17.385 -18.568 -47.865  0.00  0.00    +0.000 OA
ATOM     31  HXT UNL     1     -17.669 -17.992 -48.619  0.00  0.00    +0.000 HD
ENDBRANCH  28  30
ENDBRANCH   3  28
BRANCH   4  32
ATOM     32  C   UNL     1     -18.614 -14.994 -45.430  0.00  0.00    +0.000 C 
BRANCH  32  33
ATOM     33  C   UNL     1     -19.829 -14.390 -46.150  0.00  0.00    +0.000 C 
BRANCH  33  34
ATOM     34  C   UNL     1     -19.815 -12.863 -46.208  0.00  0.00    +0.000 C 
BRANCH  34  35
ATOM     35  O   UNL     1     -21.122 -12.348 -45.912  0.00  0.00    +0.000 OA
BRANCH  35  36
ATOM     36  C   UNL     1     -21.193 -11.013 -45.612  0.00  0.00    +0.000 A 
ATOM     37  C   UNL     1     -20.317 -10.353 -44.758  0.00  0.00    +0.000 A 
ATOM     38  C   UNL     1     -20.475  -8.989 -44.502  0.00  0.00    +0.000 A 
ATOM     39  C   UNL     1     -21.504  -8.252 -45.103  0.00  0.00    +0.000 A 
ATOM     40  C   UNL     1     -22.347  -8.915 -46.009  0.00  0.00    +0.000 A 
ATOM     41  C   UNL     1     -22.187 -10.283 -46.266  0.00  0.00    +0.000 A 
BRANCH  39  42
ATOM     42  C   UNL     1     -21.728  -6.782 -44.826  0.00  0.00    +0.000 C 
BRANCH  42  43
ATOM     43  N   UNL     1     -20.529  -5.957 -44.961  0.00  0.00    +0.000 NA
ATOM     44  H   UNL     1     -19.852  -6.260 -44.261  0.00  0.00    +0.000 HD
ATOM     45  H   UNL     1     -20.761  -4.995 -44.724  0.00  0.00    +0.000 HD
ENDBRANCH  42  43
ENDBRANCH  39  42
ENDBRANCH  35  36
ENDBRANCH  34  35
ENDBRANCH  33  34
ENDBRANCH  32  33
ENDBRANCH   4  32
TORSDOF 11
ENDMDL
MODEL 4
REMARK VINA RESULT:    -9.826      4.845      7.625
REMARK INTER + INTRA:         -16.625
REMARK INTER:                 -14.623
REMARK INTRA:                  -2.002
REMARK UNBOUND:                -1.055
REMARK  Name = 
REMARK  11 active torsions:
REMARK  status: ('A' for Active; 'I' for Inactive)
REMARK    1  A    between atoms: C_6  and  C_9
REMARK    2  A    between atoms: CA_11  and  C_26
REMARK    3  A    between atoms: C_12  and  C_14
REMARK    4  A    between atoms: C_14  and  C_15
REMARK    5  A    between atoms: C_15  and  C_16
REMARK    6  A    between atoms: C_16  and  O_17
REMARK    7  A    between atoms: O_17  and  C_18
REMARK    8  A    between atoms: C_21  and  C_24
REMARK    9  A    between atoms: C_24  and  N_25
REMARK   10  A    between atoms: C_26  and  OXT_28
REMARK   11  A    between atoms: N_30  and  N_31
REMARK                            x       y       z     vdW  Elec       q    Type
REMARK                         _______ _______ _______ _____ _____    ______ ____
ROOT
ATOM      1  C   UNL     1     -13.440 -16.368 -48.136  0.00  0.00    +0.000 A 
ATOM      2  N   UNL     1     -12.266 -16.081 -47.616  0.00  0.00    +0.000 NA
ATOM      3  CA  UNL     1     -11.234 -16.591 -48.422  0.00  0.00    +0.000 A 
ATOM      4  C   UNL     1     -11.656 -17.245 -49.571  0.00  0.00    +0.000 A 
ATOM      5  S   UNL     1     -13.370 -17.283 -49.585  0.00  0.00    +0.000 S 
ENDROOT
BRANCH   1  11
ATOM      6  C   UNL     1     -19.220 -15.741 -45.162  0.00  0.00    +0.000 C 
ATOM      7  C   UNL     1     -18.564 -14.638 -45.989  0.00  0.00    +0.000 C 
ATOM      8  C   UNL     1     -17.216 -15.078 -46.485  0.00  0.00    +0.000 A 
ATOM      9  C   UNL     1     -16.980 -16.420 -46.774  0.00  0.00    +0.000 A 
ATOM     10  C   UNL     1     -15.749 -16.834 -47.296  0.00  0.00    +0.000 A 
ATOM     11  C   UNL     1     -14.723 -15.928 -47.550  0.00  0.00    +0.000 A 
ATOM     12  C   UNL     1     -14.956 -14.580 -47.248  0.00  0.00    +0.000 A 
ATOM     13  C   UNL     1     -16.190 -14.158 -46.728  0.00  0.00    +0.000 A 
ATOM     14  C   UNL     1     -18.023 -17.460 -46.549  0.00  0.00    +0.000 C 
ATOM     15  N   UNL     1     -17.714 -18.649 -46.954  0.00  0.00    +0.000 NA
ATOM     16  C   UNL     1     -19.346 -17.040 -45.953  0.00  0.00    +0.000 C 
BRANCH  15  17
ATOM     17  N   UNL     1     -18.534 -19.702 -46.846  0.00  0.00    +0.000 N 
ATOM     18  C   UNL     1     -19.245 -20.153 -47.914  0.00  0.00    +0.000 A 
ATOM     19  N   UNL     1     -20.062 -21.173 -47.842  0.00  0.00    +0.000 NA
ATOM     20  C   UNL     1     -20.839 -21.218 -48.981  0.00  0.00    +0.000 A 
ATOM     21  C   UNL     1     -21.925 -22.086 -49.188  0.00  0.00    +0.000 A 
ATOM     22  C   UNL     1     -22.949 -21.467 -49.902  0.00  0.00    +0.000 A 
ATOM     23  C   UNL     1     -22.651 -20.623 -50.964  0.00  0.00    +0.000 A 
ATOM     24  C   UNL     1     -21.359 -20.118 -51.102  0.00  0.00    +0.000 A 
ATOM     25  C   UNL     1     -20.543 -20.279 -49.971  0.00  0.00    +0.000 A 
ATOM     26  S   UNL     1     -19.152 -19.412 -49.484  0.00  0.00    +0.000 S 
ATOM     27  H   UNL     1     -18.695 -20.180 -45.966  0.00  0.00    +0.000 HD
ENDBRANCH  15  17
ENDBRANCH   1  11
BRANCH   3  28
ATOM     28  C   UNL     1      -9.875 -16.371 -47.957  0.00  0.00    +0.000 C 
ATOM     29  O   UNL     1      -8.908 -16.087 -48.682  0.00  0.00    +0.000 OA
BRANCH  28  30
ATOM     30  OXT UNL     1      -9.756 -16.536 -46.618  0.00  0.00    +0.000 OA
ATOM     31  HXT UNL     1      -8.850 -16.211 -46.384  0.00  0.00    +0.000 HD
ENDBRANCH  28  30
ENDBRANCH   3  28
BRANCH   4  32
ATOM     32  C   UNL     1     -10.897 -17.913 -50.687  0.00  0.00    +0.000 C 
BRANCH  32  33
ATOM     33  C   UNL     1     -10.884 -17.117 -52.000  0.00  0.00    +0.000 C 
BRANCH  33  34
ATOM     34  C   UNL     1     -10.573 -15.632 -51.819  0.00  0.00    +0.000 C 
BRANCH  34  35
ATOM     35  O   UNL     1     -11.790 -14.871 -51.822  0.00  0.00    +0.000 OA
BRANCH  35  36
ATOM     36  C   UNL     1     -11.825 -13.783 -50.990  0.00  0.00    +0.000 A 
ATOM     37  C   UNL     1     -12.937 -13.396 -50.250  0.00  0.00    +0.000 A 
ATOM     38  C   UNL     1     -12.883 -12.263 -49.435  0.00  0.00    +0.000 A 
ATOM     39  C   UNL     1     -11.713 -11.497 -49.333  0.00  0.00    +0.000 A 
ATOM     40  C   UNL     1     -10.579 -11.929 -50.039  0.00  0.00    +0.000 A 
ATOM     41  C   UNL     1     -10.634 -13.067 -50.855  0.00  0.00    +0.000 A 
BRANCH  39  42
ATOM     42  C   UNL     1     -11.625 -10.246 -48.488  0.00  0.00    +0.000 C 
BRANCH  42  43
ATOM     43  N   UNL     1     -11.079  -9.086 -49.192  0.00  0.00    +0.000 NA
ATOM     44  H   UNL     1     -10.433  -9.421 -49.907  0.00  0.00    +0.000 HD
ATOM     45  H   UNL     1     -10.514  -8.543 -48.542  0.00  0.00    +0.000 HD
ENDBRANCH  42  43
ENDBRANCH  39  42
ENDBRANCH  35  36
ENDBRANCH  34  35
ENDBRANCH  33  34
ENDBRANCH  32  33
ENDBRANCH   4  32
TORSDOF 11
ENDMDL
MODEL 5
REMARK VINA RESULT:    -9.782      4.256     11.403
REMARK INTER + INTRA:         -16.556
REMARK INTER:                 -15.388
REMARK INTRA:                  -1.167
REMARK UNBOUND:                -1.055
REMARK  Name = 
REMARK  11 active torsions:
REMARK  status: ('A' for Active; 'I' for Inactive)
REMARK    1  A    between atoms: C_6  and  C_9
REMARK    2  A    between atoms: CA_11  and  C_26
REMARK    3  A    between atoms: C_12  and  C_14
REMARK    4  A    between atoms: C_14  and  C_15
REMARK    5  A    between atoms: C_15  and  C_16
REMARK    6  A    between atoms: C_16  and  O_17
REMARK    7  A    between atoms: O_17  and  C_18
REMARK    8  A    between atoms: C_21  and  C_24
REMARK    9  A    between atoms: C_24  and  N_25
REMARK   10  A    between atoms: C_26  and  OXT_28
REMARK   11  A    between atoms: N_30  and  N_31
REMARK                            x       y       z     vdW  Elec       q    Type
REMARK                         _______ _______ _______ _____ _____    ______ ____
ROOT
ATOM      1  C   UNL     1     -17.958 -16.045 -46.278  0.00  0.00    +0.000 A 
ATOM      2  N   UNL     1     -18.468 -17.239 -46.073  0.00  0.00    +0.000 NA
ATOM      3  CA  UNL     1     -19.777 -17.136 -45.570  0.00  0.00    +0.000 A 
ATOM      4  C   UNL     1     -20.248 -15.838 -45.426  0.00  0.00    +0.000 A 
ATOM      5  S   UNL     1     -18.996 -14.747 -45.853  0.00  0.00    +0.000 S 
ENDROOT
BRANCH   1  11
ATOM      6  C   UNL     1     -12.230 -16.255 -49.408  0.00  0.00    +0.000 C 
ATOM      7  C   UNL     1     -12.596 -15.194 -48.373  0.00  0.00    +0.000 C 
ATOM      8  C   UNL     1     -14.005 -15.391 -47.887  0.00  0.00    +0.000 A 
ATOM      9  C   UNL     1     -14.547 -16.671 -47.816  0.00  0.00    +0.000 A 
ATOM     10  C   UNL     1     -15.835 -16.875 -47.307  0.00  0.00    +0.000 A 
ATOM     11  C   UNL     1     -16.615 -15.816 -46.849  0.00  0.00    +0.000 A 
ATOM     12  C   UNL     1     -16.073 -14.528 -46.931  0.00  0.00    +0.000 A 
ATOM     13  C   UNL     1     -14.781 -14.317 -47.438  0.00  0.00    +0.000 A 
ATOM     14  C   UNL     1     -13.783 -17.868 -48.269  0.00  0.00    +0.000 C 
ATOM     15  N   UNL     1     -14.359 -19.006 -48.053  0.00  0.00    +0.000 NA
ATOM     16  C   UNL     1     -12.405 -17.666 -48.855  0.00  0.00    +0.000 C 
BRANCH  15  17
ATOM     17  N   UNL     1     -13.814 -20.184 -48.381  0.00  0.00    +0.000 N 
ATOM     18  C   UNL     1     -14.465 -21.060 -49.191  0.00  0.00    +0.000 A 
ATOM     19  N   UNL     1     -13.966 -22.224 -49.523  0.00  0.00    +0.000 NA
ATOM     20  C   UNL     1     -14.950 -22.994 -50.106  0.00  0.00    +0.000 A 
ATOM     21  C   UNL     1     -14.819 -24.351 -50.452  0.00  0.00    +0.000 A 
ATOM     22  C   UNL     1     -16.003 -25.053 -50.236  0.00  0.00    +0.000 A 
ATOM     23  C   UNL     1     -17.228 -24.475 -50.546  0.00  0.00    +0.000 A 
ATOM     24  C   UNL     1     -17.310 -23.096 -50.738  0.00  0.00    +0.000 A 
ATOM     25  C   UNL     1     -16.186 -22.376 -50.304  0.00  0.00    +0.000 A 
ATOM     26  S   UNL     1     -16.036 -20.731 -49.858  0.00  0.00    +0.000 S 
ATOM     27  H   UNL     1     -12.921 -20.493 -48.010  0.00  0.00    +0.000 HD
ENDBRANCH  15  17
ENDBRANCH   1  11
BRANCH   3  28
ATOM     28  C   UNL     1     -20.460 -18.382 -45.271  0.00  0.00    +0.000 C 
ATOM     29  O   UNL     1     -21.098 -19.063 -46.090  0.00  0.00    +0.000 OA
BRANCH  28  30
ATOM     30  OXT UNL     1     -20.355 -18.727 -43.965  0.00  0.00    +0.000 OA
ATOM     31  HXT UNL     1     -19.771 -19.526 -43.941  0.00  0.00    +0.000 HD
ENDBRANCH  28  30
ENDBRANCH   3  28
BRANCH   4  32
ATOM     32  C   UNL     1     -21.567 -15.293 -44.945  0.00  0.00    +0.000 C 
BRANCH  32  33
ATOM     33  C   UNL     1     -22.354 -14.521 -46.013  0.00  0.00    +0.000 C 
BRANCH  33  34
ATOM     34  C   UNL     1     -22.577 -13.048 -45.672  0.00  0.00    +0.000 C 
BRANCH  34  35
ATOM     35  O   UNL     1     -21.319 -12.358 -45.622  0.00  0.00    +0.000 OA
BRANCH  35  36
ATOM     36  C   UNL     1     -21.378 -11.003 -45.432  0.00  0.00    +0.000 A 
ATOM     37  C   UNL     1     -20.313 -10.224 -44.997  0.00  0.00    +0.000 A 
ATOM     38  C   UNL     1     -20.471  -8.847 -44.821  0.00  0.00    +0.000 A 
ATOM     39  C   UNL     1     -21.694  -8.217 -45.088  0.00  0.00    +0.000 A 
ATOM     40  C   UNL     1     -22.746  -9.003 -45.582  0.00  0.00    +0.000 A 
ATOM     41  C   UNL     1     -22.587 -10.384 -45.760  0.00  0.00    +0.000 A 
BRANCH  39  42
ATOM     42  C   UNL     1     -21.915  -6.735 -44.879  0.00  0.00    +0.000 C 
BRANCH  42  43
ATOM     43  N   UNL     1     -20.683  -5.951 -44.805  0.00  0.00    +0.000 NA
ATOM     44  H   UNL     1     -20.463  -5.611 -45.741  0.00  0.00    +0.000 HD
ATOM     45  H   UNL     1     -19.915  -6.567 -44.547  0.00  0.00    +0.000 HD
ENDBRANCH  42  43
ENDBRANCH  39  42
ENDBRANCH  35  36
ENDBRANCH  34  35
ENDBRANCH  33  34
ENDBRANCH  32  33
ENDBRANCH   4  32
TORSDOF 11
ENDMDL
MODEL 6
REMARK VINA RESULT:    -9.693      4.473      7.558
REMARK INTER + INTRA:         -16.415
REMARK INTER:                 -15.311
REMARK INTRA:                  -1.104
REMARK UNBOUND:                -1.055
REMARK  Name = 
REMARK  11 active torsions:
REMARK  status: ('A' for Active; 'I' for Inactive)
REMARK    1  A    between atoms: C_6  and  C_9
REMARK    2  A    between atoms: CA_11  and  C_26
REMARK    3  A    between atoms: C_12  and  C_14
REMARK    4  A    between atoms: C_14  and  C_15
REMARK    5  A    between atoms: C_15  and  C_16
REMARK    6  A    between atoms: C_16  and  O_17
REMARK    7  A    between atoms: O_17  and  C_18
REMARK    8  A    between atoms: C_21  and  C_24
REMARK    9  A    between atoms: C_24  and  N_25
REMARK   10  A    between atoms: C_26  and  OXT_28
REMARK   11  A    between atoms: N_30  and  N_31
REMARK                            x       y       z     vdW  Elec       q    Type
REMARK                         _______ _______ _______ _____ _____    ______ ____
ROOT
ATOM      1  C   UNL     1     -15.056 -15.434 -47.463  0.00  0.00    +0.000 A 
ATOM      2  N   UNL     1     -14.040 -16.232 -47.214  0.00  0.00    +0.000 NA
ATOM      3  CA  UNL     1     -12.887 -15.784 -47.880  0.00  0.00    +0.000 A 
ATOM      4  C   UNL     1     -13.051 -14.618 -48.616  0.00  0.00    +0.000 A 
ATOM      5  S   UNL     1     -14.694 -14.136 -48.525  0.00  0.00    +0.000 S 
ENDROOT
BRANCH   1  11
ATOM      6  C   UNL     1     -20.606 -17.521 -44.727  0.00  0.00    +0.000 C 
ATOM      7  C   UNL     1     -20.410 -16.114 -45.288  0.00  0.00    +0.000 C 
ATOM      8  C   UNL     1     -19.005 -15.935 -45.790  0.00  0.00    +0.000 A 
ATOM      9  C   UNL     1     -18.309 -17.017 -46.322  0.00  0.00    +0.000 A 
ATOM     10  C   UNL     1     -17.024 -16.851 -46.851  0.00  0.00    +0.000 A 
ATOM     11  C   UNL     1     -16.398 -15.608 -46.869  0.00  0.00    +0.000 A 
ATOM     12  C   UNL     1     -17.093 -14.522 -46.323  0.00  0.00    +0.000 A 
ATOM     13  C   UNL     1     -18.384 -14.681 -45.795  0.00  0.00    +0.000 A 
ATOM     14  C   UNL     1     -18.902 -18.384 -46.359  0.00  0.00    +0.000 C 
ATOM     15  N   UNL     1     -18.196 -19.277 -46.973  0.00  0.00    +0.000 NA
ATOM     16  C   UNL     1     -20.274 -18.592 -45.762  0.00  0.00    +0.000 C 
BRANCH  15  17
ATOM     17  N   UNL     1     -18.579 -20.552 -47.115  0.00  0.00    +0.000 N 
ATOM     18  C   UNL     1     -19.147 -20.991 -48.270  0.00  0.00    +0.000 A 
ATOM     19  N   UNL     1     -19.542 -22.227 -48.440  0.00  0.00    +0.000 NA
ATOM     20  C   UNL     1     -20.319 -22.307 -49.577  0.00  0.00    +0.000 A 
ATOM     21  C   UNL     1     -21.037 -23.443 -49.991  0.00  0.00    +0.000 A 
ATOM     22  C   UNL     1     -22.255 -23.098 -50.573  0.00  0.00    +0.000 A 
ATOM     23  C   UNL     1     -22.342 -21.999 -51.417  0.00  0.00    +0.000 A 
ATOM     24  C   UNL     1     -21.325 -21.045 -51.414  0.00  0.00    +0.000 A 
ATOM     25  C   UNL     1     -20.438 -21.137 -50.330  0.00  0.00    +0.000 A 
ATOM     26  S   UNL     1     -19.419 -19.951 -49.637  0.00  0.00    +0.000 S 
ATOM     27  H   UNL     1     -18.506 -21.230 -46.365  0.00  0.00    +0.000 HD
ENDBRANCH  15  17
ENDBRANCH   1  11
BRANCH   3  28
ATOM     28  C   UNL     1     -11.687 -16.586 -47.716  0.00  0.00    +0.000 C 
ATOM     29  O   UNL     1     -10.581 -16.152 -47.357  0.00  0.00    +0.000 OA
BRANCH  28  30
ATOM     30  OXT UNL     1     -11.891 -17.888 -48.028  0.00  0.00    +0.000 OA
ATOM     31  HXT UNL     1     -11.199 -18.118 -48.699  0.00  0.00    +0.000 HD
ENDBRANCH  28  30
ENDBRANCH   3  28
BRANCH   4  32
ATOM     32  C   UNL     1     -12.092 -13.810 -49.450  0.00  0.00    +0.000 C 
BRANCH  32  33
ATOM     33  C   UNL     1     -12.507 -12.344 -49.639  0.00  0.00    +0.000 C 
BRANCH  33  34
ATOM     34  C   UNL     1     -11.696 -11.360 -48.796  0.00  0.00    +0.000 C 
BRANCH  34  35
ATOM     35  O   UNL     1     -11.408 -10.179 -49.560  0.00  0.00    +0.000 OA
BRANCH  35  36
ATOM     36  C   UNL     1     -10.102 -10.004 -49.935  0.00  0.00    +0.000 A 
ATOM     37  C   UNL     1      -9.391 -10.884 -50.743  0.00  0.00    +0.000 A 
ATOM     38  C   UNL     1      -8.057 -10.627 -51.064  0.00  0.00    +0.000 A 
ATOM     39  C   UNL     1      -7.406  -9.477 -50.593  0.00  0.00    +0.000 A 
ATOM     40  C   UNL     1      -8.148  -8.566 -49.827  0.00  0.00    +0.000 A 
ATOM     41  C   UNL     1      -9.488  -8.825 -49.507  0.00  0.00    +0.000 A 
BRANCH  39  42
ATOM     42  C   UNL     1      -5.953  -9.180 -50.891  0.00  0.00    +0.000 C 
BRANCH  42  43
ATOM     43  N   UNL     1      -5.295  -8.344 -49.888  0.00  0.00    +0.000 NA
ATOM     44  H   UNL     1      -4.432  -8.806 -49.601  0.00  0.00    +0.000 HD
ATOM     45  H   UNL     1      -5.879  -8.308 -49.055  0.00  0.00    +0.000 HD
ENDBRANCH  42  43
ENDBRANCH  39  42
ENDBRANCH  35  36
ENDBRANCH  34  35
ENDBRANCH  33  34
ENDBRANCH  32  33
ENDBRANCH   4  32
TORSDOF 11
ENDMDL
MODEL 7
REMARK VINA RESULT:    -9.545      4.156      7.172
REMARK INTER + INTRA:         -16.179
REMARK INTER:                 -14.647
REMARK INTRA:                  -1.531
REMARK UNBOUND:                -1.055
REMARK  Name = 
REMARK  11 active torsions:
REMARK  status: ('A' for Active; 'I' for Inactive)
REMARK    1  A    between atoms: C_6  and  C_9
REMARK    2  A    between atoms: CA_11  and  C_26
REMARK    3  A    between atoms: C_12  and  C_14
REMARK    4  A    between atoms: C_14  and  C_15
REMARK    5  A    between atoms: C_15  and  C_16
REMARK    6  A    between atoms: C_16  and  O_17
REMARK    7  A    between atoms: O_17  and  C_18
REMARK    8  A    between atoms: C_21  and  C_24
REMARK    9  A    between atoms: C_24  and  N_25
REMARK   10  A    between atoms: C_26  and  OXT_28
REMARK   11  A    between atoms: N_30  and  N_31
REMARK                            x       y       z     vdW  Elec       q    Type
REMARK                         _______ _______ _______ _____ _____    ______ ____
ROOT
ATOM      1  C   UNL     1     -15.501 -16.611 -47.264  0.00  0.00    +0.000 A 
ATOM      2  N   UNL     1     -15.263 -17.863 -47.588  0.00  0.00    +0.000 NA
ATOM      3  CA  UNL     1     -13.917 -18.029 -47.956  0.00  0.00    +0.000 A 
ATOM      4  C   UNL     1     -13.142 -16.881 -47.878  0.00  0.00    +0.000 A 
ATOM      5  S   UNL     1     -14.145 -15.570 -47.414  0.00  0.00    +0.000 S 
ENDROOT
BRANCH   1  11
ATOM      6  C   UNL     1     -21.419 -15.738 -44.647  0.00  0.00    +0.000 C 
ATOM      7  C   UNL     1     -20.725 -14.714 -45.543  0.00  0.00    +0.000 C 
ATOM      8  C   UNL     1     -19.354 -15.191 -45.929  0.00  0.00    +0.000 A 
ATOM      9  C   UNL     1     -19.103 -16.553 -46.076  0.00  0.00    +0.000 A 
ATOM     10  C   UNL     1     -17.848 -17.008 -46.496  0.00  0.00    +0.000 A 
ATOM     11  C   UNL     1     -16.811 -16.124 -46.786  0.00  0.00    +0.000 A 
ATOM     12  C   UNL     1     -17.060 -14.756 -46.625  0.00  0.00    +0.000 A 
ATOM     13  C   UNL     1     -18.318 -14.293 -46.208  0.00  0.00    +0.000 A 
ATOM     14  C   UNL     1     -20.154 -17.574 -45.804  0.00  0.00    +0.000 C 
ATOM     15  N   UNL     1     -19.825 -18.793 -46.080  0.00  0.00    +0.000 NA
ATOM     16  C   UNL     1     -21.506 -17.106 -45.316  0.00  0.00    +0.000 C 
BRANCH  15  17
ATOM     17  N   UNL     1     -20.648 -19.836 -45.912  0.00  0.00    +0.000 N 
ATOM     18  C   UNL     1     -21.132 -20.529 -46.977  0.00  0.00    +0.000 A 
ATOM     19  N   UNL     1     -21.946 -21.547 -46.849  0.00  0.00    +0.000 NA
ATOM     20  C   UNL     1     -22.480 -21.862 -48.081  0.00  0.00    +0.000 A 
ATOM     21  C   UNL     1     -23.503 -22.801 -48.306  0.00  0.00    +0.000 A 
ATOM     22  C   UNL     1     -24.365 -22.389 -49.319  0.00  0.00    +0.000 A 
ATOM     23  C   UNL     1     -23.864 -21.771 -50.458  0.00  0.00    +0.000 A 
ATOM     24  C   UNL     1     -22.571 -21.249 -50.447  0.00  0.00    +0.000 A 
ATOM     25  C   UNL     1     -21.996 -21.136 -49.171  0.00  0.00    +0.000 A 
ATOM     26  S   UNL     1     -20.730 -20.127 -48.619  0.00  0.00    +0.000 S 
ATOM     27  H   UNL     1     -20.980 -20.128 -44.998  0.00  0.00    +0.000 HD
ENDBRANCH  15  17
ENDBRANCH   1  11
BRANCH   3  28
ATOM     28  C   UNL     1     -13.514 -19.363 -48.365  0.00  0.00    +0.000 C 
ATOM     29  O   UNL     1     -13.270 -20.305 -47.593  0.00  0.00    +0.000 OA
BRANCH  28  30
ATOM     30  OXT UNL     1     -13.398 -19.478 -49.710  0.00  0.00    +0.000 OA
ATOM     31  HXT UNL     1     -13.301 -18.554 -50.054  0.00  0.00    +0.000 HD
ENDBRANCH  28  30
ENDBRANCH   3  28
BRANCH   4  32
ATOM     32  C   UNL     1     -11.685 -16.626 -48.164  0.00  0.00    +0.000 C 
BRANCH  32  33
ATOM     33  C   UNL     1     -11.344 -16.542 -49.658  0.00  0.00    +0.000 C 
BRANCH  33  34
ATOM     34  C   UNL     1     -12.455 -15.929 -50.511  0.00  0.00    +0.000 C 
BRANCH  34  35
ATOM     35  O   UNL     1     -11.938 -14.830 -51.276  0.00  0.00    +0.000 OA
BRANCH  35  36
ATOM     36  C   UNL     1     -11.876 -13.622 -50.635  0.00  0.00    +0.000 A 
ATOM     37  C   UNL     1     -12.930 -13.051 -49.931  0.00  0.00    +0.000 A 
ATOM     38  C   UNL     1     -12.776 -11.806 -49.317  0.00  0.00    +0.000 A 
ATOM     39  C   UNL     1     -11.561 -11.109 -49.381  0.00  0.00    +0.000 A 
ATOM     40  C   UNL     1     -10.486 -11.720 -50.044  0.00  0.00    +0.000 A 
ATOM     41  C   UNL     1     -10.640 -12.970 -50.659  0.00  0.00    +0.000 A 
BRANCH  39  42
ATOM     42  C   UNL     1     -11.366  -9.745 -48.758  0.00  0.00    +0.000 C 
BRANCH  42  43
ATOM     43  N   UNL     1     -10.627  -8.804 -49.598  0.00  0.00    +0.000 NA
ATOM     44  H   UNL     1     -11.266  -8.432 -50.301  0.00  0.00    +0.000 HD
ATOM     45  H   UNL     1      -9.913  -9.312 -50.115  0.00  0.00    +0.000 HD
ENDBRANCH  42  43
ENDBRANCH  39  42
ENDBRANCH  35  36
ENDBRANCH  34  35
ENDBRANCH  33  34
ENDBRANCH  32  33
ENDBRANCH   4  32
TORSDOF 11
ENDMDL
MODEL 8
REMARK VINA RESULT:    -9.543      4.382     12.949
REMARK INTER + INTRA:         -16.177
REMARK INTER:                 -15.462
REMARK INTRA:                  -0.715
REMARK UNBOUND:                -1.055
REMARK  Name = 
REMARK  11 active torsions:
REMARK  status: ('A' for Active; 'I' for Inactive)
REMARK    1  A    between atoms: C_6  and  C_9
REMARK    2  A    between atoms: CA_11  and  C_26
REMARK    3  A    between atoms: C_12  and  C_14
REMARK    4  A    between atoms: C_14  and  C_15
REMARK    5  A    between atoms: C_15  and  C_16
REMARK    6  A    between atoms: C_16  and  O_17
REMARK    7  A    between atoms: O_17  and  C_18
REMARK    8  A    between atoms: C_21  and  C_24
REMARK    9  A    between atoms: C_24  and  N_25
REMARK   10  A    between atoms: C_26  and  OXT_28
REMARK   11  A    between atoms: N_30  and  N_31
REMARK                            x       y       z     vdW  Elec       q    Type
REMARK                         _______ _______ _______ _____ _____    ______ ____
ROOT
ATOM      1  C   UNL     1     -13.370 -14.293 -48.487  0.00  0.00    +0.000 A 
ATOM      2  N   UNL     1     -13.110 -15.561 -48.725  0.00  0.00    +0.000 NA
ATOM      3  CA  UNL     1     -14.133 -16.377 -48.213  0.00  0.00    +0.000 A 
ATOM      4  C   UNL     1     -15.180 -15.696 -47.608  0.00  0.00    +0.000 A 
ATOM      5  S   UNL     1     -14.823 -14.018 -47.618  0.00  0.00    +0.000 S 
ENDROOT
BRANCH   1  11
ATOM      6  C   UNL     1      -8.890 -10.376 -51.176  0.00  0.00    +0.000 C 
ATOM      7  C   UNL     1      -9.899  -9.920 -50.125  0.00  0.00    +0.000 C 
ATOM      8  C   UNL     1     -10.827 -11.043 -49.758  0.00  0.00    +0.000 A 
ATOM      9  C   UNL     1     -10.376 -12.360 -49.786  0.00  0.00    +0.000 A 
ATOM     10  C   UNL     1     -11.209 -13.411 -49.386  0.00  0.00    +0.000 A 
ATOM     11  C   UNL     1     -12.509 -13.182 -48.943  0.00  0.00    +0.000 A 
ATOM     12  C   UNL     1     -12.967 -11.859 -48.926  0.00  0.00    +0.000 A 
ATOM     13  C   UNL     1     -12.134 -10.800 -49.322  0.00  0.00    +0.000 A 
ATOM     14  C   UNL     1      -8.995 -12.702 -50.232  0.00  0.00    +0.000 C 
ATOM     15  N   UNL     1      -8.668 -13.947 -50.112  0.00  0.00    +0.000 NA
ATOM     16  C   UNL     1      -8.091 -11.586 -50.701  0.00  0.00    +0.000 C 
BRANCH  15  17
ATOM     17  N   UNL     1      -7.466 -14.431 -50.450  0.00  0.00    +0.000 N 
ATOM     18  C   UNL     1      -7.073 -15.673 -50.060  0.00  0.00    +0.000 A 
ATOM     19  N   UNL     1      -5.901 -16.173 -50.363  0.00  0.00    +0.000 NA
ATOM     20  C   UNL     1      -5.679 -17.306 -49.610  0.00  0.00    +0.000 A 
ATOM     21  C   UNL     1      -4.470 -18.022 -49.559  0.00  0.00    +0.000 A 
ATOM     22  C   UNL     1      -4.219 -18.518 -48.281  0.00  0.00    +0.000 A 
ATOM     23  C   UNL     1      -5.254 -19.042 -47.517  0.00  0.00    +0.000 A 
ATOM     24  C   UNL     1      -6.576 -18.765 -47.864  0.00  0.00    +0.000 A 
ATOM     25  C   UNL     1      -6.732 -17.725 -48.794  0.00  0.00    +0.000 A 
ATOM     26  S   UNL     1      -8.080 -16.721 -49.107  0.00  0.00    +0.000 S 
ATOM     27  H   UNL     1      -6.784 -13.885 -50.966  0.00  0.00    +0.000 HD
ENDBRANCH  15  17
ENDBRANCH   1  11
BRANCH   3  28
ATOM     28  C   UNL     1     -13.967 -17.810 -48.381  0.00  0.00    +0.000 C 
ATOM     29  O   UNL     1     -13.909 -18.401 -49.472  0.00  0.00    +0.000 OA
BRANCH  28  30
ATOM     30  OXT UNL     1     -13.909 -18.465 -47.197  0.00  0.00    +0.000 OA
ATOM     31  HXT UNL     1     -14.849 -18.616 -46.923  0.00  0.00    +0.000 HD
ENDBRANCH  28  30
ENDBRANCH   3  28
BRANCH   4  32
ATOM     32  C   UNL     1     -16.450 -16.173 -46.957  0.00  0.00    +0.000 C 
BRANCH  32  33
ATOM     33  C   UNL     1     -17.374 -15.043 -46.480  0.00  0.00    +0.000 C 
BRANCH  33  34
ATOM     34  C   UNL     1     -18.501 -15.514 -45.561  0.00  0.00    +0.000 C 
BRANCH  34  35
ATOM     35  O   UNL     1     -19.773 -15.279 -46.183  0.00  0.00    +0.000 OA
BRANCH  35  36
ATOM     36  C   UNL     1     -20.287 -14.015 -46.053  0.00  0.00    +0.000 A 
ATOM     37  C   UNL     1     -19.551 -12.847 -46.218  0.00  0.00    +0.000 A 
ATOM     38  C   UNL     1     -20.159 -11.601 -46.054  0.00  0.00    +0.000 A 
ATOM     39  C   UNL     1     -21.519 -11.493 -45.733  0.00  0.00    +0.000 A 
ATOM     40  C   UNL     1     -22.266 -12.676 -45.625  0.00  0.00    +0.000 A 
ATOM     41  C   UNL     1     -21.656 -13.927 -45.791  0.00  0.00    +0.000 A 
BRANCH  39  42
ATOM     42  C   UNL     1     -22.206 -10.164 -45.514  0.00  0.00    +0.000 C 
BRANCH  42  43
ATOM     43  N   UNL     1     -23.377  -9.948 -46.363  0.00  0.00    +0.000 NA
ATOM     44  H   UNL     1     -24.168 -10.441 -45.948  0.00  0.00    +0.000 HD
ATOM     45  H   UNL     1     -23.217 -10.391 -47.265  0.00  0.00    +0.000 HD
ENDBRANCH  42  43
ENDBRANCH  39  42
ENDBRANCH  35  36
ENDBRANCH  34  35
ENDBRANCH  33  34
ENDBRANCH  32  33
ENDBRANCH   4  32
TORSDOF 11
ENDMDL
MODEL 9
REMARK VINA RESULT:    -9.481      4.389     13.834
REMARK INTER + INTRA:         -16.079
REMARK INTER:                 -15.133
REMARK INTRA:                  -0.946
REMARK UNBOUND:                -1.055
REMARK  Name = 
REMARK  11 active torsions:
REMARK  status: ('A' for Active; 'I' for Inactive)
REMARK    1  A    between atoms: C_6  and  C_9
REMARK    2  A    between atoms: CA_11  and  C_26
REMARK    3  A    between atoms: C_12  and  C_14
REMARK    4  A    between atoms: C_14  and  C_15
REMARK    5  A    between atoms: C_15  and  C_16
REMARK    6  A    between atoms: C_16  and  O_17
REMARK    7  A    between atoms: O_17  and  C_18
REMARK    8  A    between atoms: C_21  and  C_24
REMARK    9  A    between atoms: C_24  and  N_25
REMARK   10  A    between atoms: C_26  and  OXT_28
REMARK   11  A    between atoms: N_30  and  N_31
REMARK                            x       y       z     vdW  Elec       q    Type
REMARK                         _______ _______ _______ _____ _____    ______ ____
ROOT
ATOM      1  C   UNL     1     -12.259 -12.720 -49.710  0.00  0.00    +0.000 A 
ATOM      2  N   UNL     1     -12.354 -13.677 -50.607  0.00  0.00    +0.000 NA
ATOM      3  CA  UNL     1     -13.406 -14.551 -50.284  0.00  0.00    +0.000 A 
ATOM      4  C   UNL     1     -14.115 -14.217 -49.139  0.00  0.00    +0.000 A 
ATOM      5  S   UNL     1     -13.392 -12.835 -48.427  0.00  0.00    +0.000 S 
ENDROOT
BRANCH   1  11
ATOM      6  C   UNL     1      -7.315  -8.653 -50.999  0.00  0.00    +0.000 C 
ATOM      7  C   UNL     1      -8.337  -8.425 -49.887  0.00  0.00    +0.000 C 
ATOM      8  C   UNL     1      -9.377  -9.510 -49.893  0.00  0.00    +0.000 A 
ATOM      9  C   UNL     1      -9.041 -10.799 -50.299  0.00  0.00    +0.000 A 
ATOM     10  C   UNL     1      -9.983 -11.832 -50.250  0.00  0.00    +0.000 A 
ATOM     11  C   UNL     1     -11.281 -11.616 -49.793  0.00  0.00    +0.000 A 
ATOM     12  C   UNL     1     -11.622 -10.317 -49.397  0.00  0.00    +0.000 A 
ATOM     13  C   UNL     1     -10.680  -9.276 -49.440  0.00  0.00    +0.000 A 
ATOM     14  C   UNL     1      -7.674 -11.131 -50.789  0.00  0.00    +0.000 C 
ATOM     15  N   UNL     1      -7.463 -12.383 -51.035  0.00  0.00    +0.000 NA
ATOM     16  C   UNL     1      -6.651 -10.022 -50.883  0.00  0.00    +0.000 C 
BRANCH  15  17
ATOM     17  N   UNL     1      -6.291 -12.863 -51.469  0.00  0.00    +0.000 N 
ATOM     18  C   UNL     1      -5.934 -14.156 -51.243  0.00  0.00    +0.000 A 
ATOM     19  N   UNL     1      -4.791 -14.655 -51.643  0.00  0.00    +0.000 NA
ATOM     20  C   UNL     1      -4.590 -15.878 -51.038  0.00  0.00    +0.000 A 
ATOM     21  C   UNL     1      -3.408 -16.636 -51.114  0.00  0.00    +0.000 A 
ATOM     22  C   UNL     1      -3.138 -17.289 -49.913  0.00  0.00    +0.000 A 
ATOM     23  C   UNL     1      -4.169 -17.866 -49.182  0.00  0.00    +0.000 A 
ATOM     24  C   UNL     1      -5.489 -17.504 -49.447  0.00  0.00    +0.000 A 
ATOM     25  C   UNL     1      -5.633 -16.355 -50.241  0.00  0.00    +0.000 A 
ATOM     26  S   UNL     1      -6.951 -15.275 -50.386  0.00  0.00    +0.000 S 
ATOM     27  H   UNL     1      -5.604 -12.283 -51.940  0.00  0.00    +0.000 HD
ENDBRANCH  15  17
ENDBRANCH   1  11
BRANCH   3  28
ATOM     28  C   UNL     1     -13.615 -15.677 -51.178  0.00  0.00    +0.000 C 
ATOM     29  O   UNL     1     -14.158 -16.748 -50.864  0.00  0.00    +0.000 OA
BRANCH  28  30
ATOM     30  OXT UNL     1     -13.120 -15.449 -52.418  0.00  0.00    +0.000 OA
ATOM     31  HXT UNL     1     -12.849 -14.496 -52.432  0.00  0.00    +0.000 HD
ENDBRANCH  28  30
ENDBRANCH   3  28
BRANCH   4  32
ATOM     32  C   UNL     1     -15.295 -14.861 -48.460  0.00  0.00    +0.000 C 
BRANCH  32  33
ATOM     33  C   UNL     1     -15.581 -14.319 -47.052  0.00  0.00    +0.000 C 
BRANCH  33  34
ATOM     34  C   UNL     1     -17.001 -14.598 -46.560  0.00  0.00    +0.000 C 
BRANCH  34  35
ATOM     35  O   UNL     1     -17.725 -13.366 -46.424  0.00  0.00    +0.000 OA
BRANCH  35  36
ATOM     36  C   UNL     1     -19.081 -13.476 -46.261  0.00  0.00    +0.000 A 
ATOM     37  C   UNL     1     -19.969 -12.408 -46.327  0.00  0.00    +0.000 A 
ATOM     38  C   UNL     1     -21.337 -12.614 -46.136  0.00  0.00    +0.000 A 
ATOM     39  C   UNL     1     -21.850 -13.895 -45.887  0.00  0.00    +0.000 A 
ATOM     40  C   UNL     1     -20.953 -14.975 -45.880  0.00  0.00    +0.000 A 
ATOM     41  C   UNL     1     -19.580 -14.766 -46.073  0.00  0.00    +0.000 A 
BRANCH  39  42
ATOM     42  C   UNL     1     -23.319 -14.155 -45.642  0.00  0.00    +0.000 C 
BRANCH  42  43
ATOM     43  N   UNL     1     -23.993 -14.859 -46.733  0.00  0.00    +0.000 NA
ATOM     44  H   UNL     1     -23.435 -14.746 -47.579  0.00  0.00    +0.000 HD
ATOM     45  H   UNL     1     -24.880 -14.399 -46.924  0.00  0.00    +0.000 HD
ENDBRANCH  42  43
ENDBRANCH  39  42
ENDBRANCH  35  36
ENDBRANCH  34  35
ENDBRANCH  33  34
ENDBRANCH  32  33
ENDBRANCH   4  32
TORSDOF 11
ENDMDL
