MODEL 1
REMARK VINA RESULT:    -7.353      0.000      0.000
REMARK INTER + INTRA:         -13.860
REMARK INTER:                 -12.297
REMARK INTRA:                  -1.563
REMARK UNBOUND:                -1.563
REMARK SMILES CN(C)CC#Cc1ccc(OCCCc2sc(N3CCc4cccc(C(=O)Nc5nc6ccccc6s5)c4C3)nc2C(=O)O)c(F)c1
REMARK SMILES IDX 13 1 14 2 15 3 40 4 41 5 17 6 16 7 42 8 43 9 44 10 18 12
REMARK SMILES IDX 19 13 39 14 20 15 38 16 21 17 25 18 22 19 24 20 23 21 26 22
REMARK SMILES IDX 27 23 28 24 29 26 30 27 37 28 31 29 36 30 32 31 35 32 33 33
REMARK SMILES IDX 34 34 12 35 11 36 10 37 9 38 45 39 8 40 47 41 7 42 6 43
REMARK SMILES IDX 46 44 5 45 4 46 2 47 1 48 3 49
REMARK H PARENT 44 11 28 25
ROOT
ATOM      1  C   UNL     1      -9.891 -11.749   8.866  1.00  0.00     0.047 C 
ENDROOT
BRANCH   1   2
ATOM      2  C   UNL     1     -10.155 -10.579   9.816  1.00  0.00     0.053 C 
BRANCH   2   3
ATOM      3  C   UNL     1      -9.428  -9.356   9.321  1.00  0.00     0.042 A 
ATOM      4  N   UNL     1      -9.152  -7.282   8.445  1.00  0.00    -0.213 NA
ATOM      5  C   UNL     1     -10.005  -8.239   8.823  1.00  0.00     0.164 A 
ATOM      6  C   UNL     1      -7.890  -7.530   8.596  1.00  0.00     0.186 A 
ATOM      7  S   UNL     1      -7.680  -9.134   9.290  1.00  0.00    -0.101 S 
BRANCH   5   8
ATOM      8  C   UNL     1     -11.463  -8.090   8.704  1.00  0.00     0.355 C 
ATOM      9  O   UNL     1     -12.089  -7.527   9.580  1.00  0.00    -0.244 OA
BRANCH   8  10
ATOM     10  O   UNL     1     -12.104  -8.576   7.622  1.00  0.00    -0.476 OA
ATOM     11  H   UNL     1     -11.777  -9.401   7.183  1.00  0.00     0.297 HD
ENDBRANCH   8  10
ENDBRANCH   5   8
BRANCH   6  12
ATOM     12  N   UNL     1      -6.863  -6.664   8.264  1.00  0.00    -0.343 N 
ATOM     13  C   UNL     1      -7.379  -5.479   7.566  1.00  0.00     0.124 C 
ATOM     14  C   UNL     1      -6.099  -6.270   9.452  1.00  0.00     0.155 C 
ATOM     15  C   UNL     1      -6.205  -4.751   6.910  1.00  0.00     0.057 C 
ATOM     16  C   UNL     1      -5.050  -5.252   9.091  1.00  0.00    -0.013 A 
ATOM     17  C   UNL     1      -5.105  -4.535   7.918  1.00  0.00    -0.040 A 
ATOM     18  C   UNL     1      -4.005  -5.022   9.994  1.00  0.00     0.045 A 
ATOM     19  C   UNL     1      -4.121  -3.598   7.632  1.00  0.00     0.004 A 
ATOM     20  C   UNL     1      -3.023  -4.077   9.701  1.00  0.00     0.014 A 
ATOM     21  C   UNL     1      -3.086  -3.371   8.518  1.00  0.00     0.001 A 
BRANCH  18  22
ATOM     22  C   UNL     1      -3.943  -5.781  11.260  1.00  0.00     0.257 C 
ATOM     23  O   UNL     1      -4.384  -5.294  12.283  1.00  0.00    -0.269 OA
ATOM     24  N   UNL     1      -3.400  -7.014  11.282  1.00  0.00    -0.298 N 
ATOM     25  H   UNL     1      -3.027  -7.428  10.416  1.00  0.00     0.172 HD
BRANCH  24  26
ATOM     26  C   UNL     1      -3.342  -7.725  12.468  1.00  0.00     0.190 A 
ATOM     27  N   UNL     1      -4.231  -8.570  12.863  1.00  0.00    -0.220 NA
ATOM     28  S   UNL     1      -2.036  -7.619  13.640  1.00  0.00    -0.097 S 
ATOM     29  C   UNL     1      -4.035  -9.185  14.046  1.00  0.00     0.084 A 
ATOM     30  C   UNL     1      -2.852  -8.788  14.676  1.00  0.00     0.056 A 
ATOM     31  C   UNL     1      -4.859 -10.127  14.699  1.00  0.00     0.030 A 
ATOM     32  C   UNL     1      -2.494  -9.327  15.910  1.00  0.00     0.021 A 
ATOM     33  C   UNL     1      -4.494 -10.643  15.917  1.00  0.00     0.002 A 
ATOM     34  C   UNL     1      -3.311 -10.248  16.525  1.00  0.00     0.002 A 
ENDBRANCH  24  26
ENDBRANCH  18  22
ENDBRANCH   6  12
ENDBRANCH   2   3
ENDBRANCH   1   2
BRANCH   1  35
ATOM     35  C   UNL     1     -11.165 -12.583   8.718  1.00  0.00     0.230 C 
BRANCH  35  36
ATOM     36  O   UNL     1     -11.762 -12.317   7.446  1.00  0.00    -0.491 OA
BRANCH  36  37
ATOM     37  C   UNL     1     -13.120 -12.293   7.396  1.00  0.00     0.155 A 
ATOM     38  C   UNL     1     -13.860 -13.083   8.265  1.00  0.00     0.051 A 
ATOM     39  C   UNL     1     -13.765 -11.482   6.469  1.00  0.00     0.166 A 
ATOM     40  C   UNL     1     -15.238 -13.063   8.216  1.00  0.00     0.021 A 
ATOM     41  C   UNL     1     -15.144 -11.460   6.412  1.00  0.00     0.060 A 
ATOM     42  C   UNL     1     -15.890 -12.250   7.288  1.00  0.00     0.028 A 
ATOM     43  C   UNL     1     -17.321 -12.226   7.236  1.00  0.00    -0.066 C 
ATOM     44  F   UNL     1     -13.042 -10.714   5.625  1.00  0.00    -0.203 F 
BRANCH  43  45
ATOM     45  C   UNL     1     -18.494 -12.206   7.193  1.00  0.00    -0.082 C 
ATOM     46  C   UNL     1     -19.964 -12.182   7.139  1.00  0.00     0.174 C 
BRANCH  46  47
ATOM     47  N   UNL     1     -20.496 -13.431   7.701  1.00  0.00    -0.299 NA
ATOM     48  C   UNL     1     -20.101 -14.587   6.885  1.00  0.00     0.106 C 
ATOM     49  C   UNL     1     -20.071 -13.602   9.097  1.00  0.00     0.106 C 
ENDBRANCH  46  47
ENDBRANCH  43  45
ENDBRANCH  36  37
ENDBRANCH  35  36
ENDBRANCH   1  35
TORSDOF 12
ENDMDL
MODEL 2
REMARK VINA RESULT:    -7.351      5.945     10.402
REMARK INTER + INTRA:         -13.856
REMARK INTER:                 -10.346
REMARK INTRA:                  -3.509
REMARK UNBOUND:                -1.563
REMARK SMILES CN(C)CC#Cc1ccc(OCCCc2sc(N3CCc4cccc(C(=O)Nc5nc6ccccc6s5)c4C3)nc2C(=O)O)c(F)c1
REMARK SMILES IDX 13 1 14 2 15 3 40 4 41 5 17 6 16 7 42 8 43 9 44 10 18 12
REMARK SMILES IDX 19 13 39 14 20 15 38 16 21 17 25 18 22 19 24 20 23 21 26 22
REMARK SMILES IDX 27 23 28 24 29 26 30 27 37 28 31 29 36 30 32 31 35 32 33 33
REMARK SMILES IDX 34 34 12 35 11 36 10 37 9 38 45 39 8 40 47 41 7 42 6 43
REMARK SMILES IDX 46 44 5 45 4 46 2 47 1 48 3 49
REMARK H PARENT 44 11 28 25
ROOT
ATOM      1  C   UNL     1      -0.158  -6.347   9.406  1.00  0.00     0.047 C 
ENDROOT
BRANCH   1   2
ATOM      2  C   UNL     1       0.845  -5.201   9.249  1.00  0.00     0.053 C 
BRANCH   2   3
ATOM      3  C   UNL     1       0.201  -4.070   8.490  1.00  0.00     0.042 A 
ATOM      4  N   UNL     1      -0.285  -1.932   7.911  1.00  0.00    -0.213 NA
ATOM      5  C   UNL     1       0.400  -2.751   8.714  1.00  0.00     0.164 A 
ATOM      6  C   UNL     1      -1.050  -2.485   7.024  1.00  0.00     0.186 A 
ATOM      7  S   UNL     1      -0.942  -4.237   7.160  1.00  0.00    -0.101 S 
BRANCH   5   8
ATOM      8  C   UNL     1       1.301  -2.256   9.764  1.00  0.00     0.355 C 
ATOM      9  O   UNL     1       2.492  -2.150   9.543  1.00  0.00    -0.244 OA
BRANCH   8  10
ATOM     10  O   UNL     1       0.807  -1.920  10.973  1.00  0.00    -0.476 OA
ATOM     11  H   UNL     1       1.417  -1.602  11.686  1.00  0.00     0.297 HD
ENDBRANCH   8  10
ENDBRANCH   5   8
BRANCH   6  12
ATOM     12  N   UNL     1      -1.831  -1.802   6.109  1.00  0.00    -0.343 N 
ATOM     13  C   UNL     1      -1.021  -1.313   4.986  1.00  0.00     0.124 C 
ATOM     14  C   UNL     1      -2.931  -2.643   5.623  1.00  0.00     0.155 C 
ATOM     15  C   UNL     1      -1.837  -0.278   4.212  1.00  0.00     0.057 C 
ATOM     16  C   UNL     1      -3.712  -1.923   4.555  1.00  0.00    -0.013 A 
ATOM     17  C   UNL     1      -3.200  -0.834   3.888  1.00  0.00    -0.040 A 
ATOM     18  C   UNL     1      -4.986  -2.401   4.225  1.00  0.00     0.045 A 
ATOM     19  C   UNL     1      -3.953  -0.209   2.903  1.00  0.00     0.004 A 
ATOM     20  C   UNL     1      -5.734  -1.770   3.232  1.00  0.00     0.014 A 
ATOM     21  C   UNL     1      -5.212  -0.674   2.577  1.00  0.00     0.001 A 
BRANCH  18  22
ATOM     22  C   UNL     1      -5.539  -3.576   4.930  1.00  0.00     0.257 C 
ATOM     23  O   UNL     1      -6.212  -3.423   5.931  1.00  0.00    -0.269 OA
ATOM     24  N   UNL     1      -5.300  -4.818   4.464  1.00  0.00    -0.298 N 
ATOM     25  H   UNL     1      -4.731  -4.948   3.616  1.00  0.00     0.172 HD
BRANCH  24  26
ATOM     26  C   UNL     1      -5.819  -5.917   5.124  1.00  0.00     0.190 A 
ATOM     27  N   UNL     1      -6.991  -6.412   4.921  1.00  0.00    -0.220 NA
ATOM     28  S   UNL     1      -4.964  -6.853   6.342  1.00  0.00    -0.097 S 
ATOM     29  C   UNL     1      -7.356  -7.489   5.644  1.00  0.00     0.084 A 
ATOM     30  C   UNL     1      -6.362  -7.909   6.533  1.00  0.00     0.056 A 
ATOM     31  C   UNL     1      -8.577  -8.196   5.621  1.00  0.00     0.030 A 
ATOM     32  C   UNL     1      -6.573  -9.011   7.358  1.00  0.00     0.021 A 
ATOM     33  C   UNL     1      -8.771  -9.275   6.445  1.00  0.00     0.002 A 
ATOM     34  C   UNL     1      -7.771  -9.689   7.314  1.00  0.00     0.002 A 
ENDBRANCH  24  26
ENDBRANCH  18  22
ENDBRANCH   6  12
ENDBRANCH   2   3
ENDBRANCH   1   2
BRANCH   1  35
ATOM     35  C   UNL     1      -0.920  -6.181  10.722  1.00  0.00     0.230 C 
BRANCH  35  36
ATOM     36  O   UNL     1      -1.763  -5.030  10.642  1.00  0.00    -0.491 OA
BRANCH  36  37
ATOM     37  C   UNL     1      -3.074  -5.245  10.355  1.00  0.00     0.155 A 
ATOM     38  C   UNL     1      -3.668  -6.454  10.689  1.00  0.00     0.051 A 
ATOM     39  C   UNL     1      -3.816  -4.255   9.720  1.00  0.00     0.166 A 
ATOM     40  C   UNL     1      -4.997  -6.676  10.399  1.00  0.00     0.021 A 
ATOM     41  C   UNL     1      -5.146  -4.472   9.422  1.00  0.00     0.060 A 
ATOM     42  C   UNL     1      -5.746  -5.686   9.762  1.00  0.00     0.028 A 
ATOM     43  C   UNL     1      -7.127  -5.913   9.460  1.00  0.00    -0.066 C 
ATOM     44  F   UNL     1      -3.235  -3.080   9.396  1.00  0.00    -0.203 F 
BRANCH  43  45
ATOM     45  C   UNL     1      -8.259  -6.100   9.212  1.00  0.00    -0.082 C 
ATOM     46  C   UNL     1      -9.678  -6.335   8.901  1.00  0.00     0.174 C 
BRANCH  46  47
ATOM     47  N   UNL     1     -10.040  -7.711   9.268  1.00  0.00    -0.299 NA
ATOM     48  C   UNL     1      -9.953  -7.909  10.721  1.00  0.00     0.106 C 
ATOM     49  C   UNL     1     -11.380  -8.052   8.770  1.00  0.00     0.106 C 
ENDBRANCH  46  47
ENDBRANCH  43  45
ENDBRANCH  36  37
ENDBRANCH  35  36
ENDBRANCH   1  35
TORSDOF 12
ENDMDL
MODEL 3
REMARK VINA RESULT:    -7.231      4.392      8.074
REMARK INTER + INTRA:         -13.655
REMARK INTER:                  -9.104
REMARK INTRA:                  -4.551
REMARK UNBOUND:                -1.563
REMARK SMILES CN(C)CC#Cc1ccc(OCCCc2sc(N3CCc4cccc(C(=O)Nc5nc6ccccc6s5)c4C3)nc2C(=O)O)c(F)c1
REMARK SMILES IDX 13 1 14 2 15 3 40 4 41 5 17 6 16 7 42 8 43 9 44 10 18 12
REMARK SMILES IDX 19 13 39 14 20 15 38 16 21 17 25 18 22 19 24 20 23 21 26 22
REMARK SMILES IDX 27 23 28 24 29 26 30 27 37 28 31 29 36 30 32 31 35 32 33 33
REMARK SMILES IDX 34 34 12 35 11 36 10 37 9 38 45 39 8 40 47 41 7 42 6 43
REMARK SMILES IDX 46 44 5 45 4 46 2 47 1 48 3 49
REMARK H PARENT 44 11 28 25
ROOT
ATOM      1  C   UNL     1      -9.716  -9.610  10.823  1.00  0.00     0.047 C 
ENDROOT
BRANCH   1   2
ATOM      2  C   UNL     1     -10.043 -10.560   9.668  1.00  0.00     0.053 C 
BRANCH   2   3
ATOM      3  C   UNL     1      -9.422 -10.040   8.398  1.00  0.00     0.042 A 
ATOM      4  N   UNL     1      -9.325  -9.181   6.301  1.00  0.00    -0.213 NA
ATOM      5  C   UNL     1     -10.094  -9.592   7.313  1.00  0.00     0.164 A 
ATOM      6  C   UNL     1      -8.043  -9.257   6.472  1.00  0.00     0.186 A 
ATOM      7  S   UNL     1      -7.696  -9.912   8.068  1.00  0.00    -0.101 S 
BRANCH   5   8
ATOM      8  C   UNL     1     -11.563  -9.562   7.252  1.00  0.00     0.355 C 
ATOM      9  O   UNL     1     -12.177 -10.554   6.909  1.00  0.00    -0.244 OA
BRANCH   8  10
ATOM     10  O   UNL     1     -12.227  -8.435   7.576  1.00  0.00    -0.476 OA
ATOM     11  H   UNL     1     -13.197  -8.361   7.389  1.00  0.00     0.297 HD
ENDBRANCH   8  10
ENDBRANCH   5   8
BRANCH   6  12
ATOM     12  N   UNL     1      -7.092  -8.879   5.540  1.00  0.00    -0.343 N 
ATOM     13  C   UNL     1      -7.671  -7.986   4.528  1.00  0.00     0.124 C 
ATOM     14  C   UNL     1      -5.941  -8.243   6.189  1.00  0.00     0.155 C 
ATOM     15  C   UNL     1      -6.705  -7.897   3.348  1.00  0.00     0.057 C 
ATOM     16  C   UNL     1      -4.962  -7.747   5.158  1.00  0.00    -0.013 A 
ATOM     17  C   UNL     1      -5.318  -7.572   3.841  1.00  0.00    -0.040 A 
ATOM     18  C   UNL     1      -3.660  -7.438   5.570  1.00  0.00     0.045 A 
ATOM     19  C   UNL     1      -4.384  -7.101   2.928  1.00  0.00     0.004 A 
ATOM     20  C   UNL     1      -2.728  -6.964   4.648  1.00  0.00     0.014 A 
ATOM     21  C   UNL     1      -3.097  -6.800   3.328  1.00  0.00     0.001 A 
BRANCH  18  22
ATOM     22  C   UNL     1      -3.271  -7.615   6.985  1.00  0.00     0.257 C 
ATOM     23  O   UNL     1      -2.970  -8.718   7.399  1.00  0.00    -0.269 OA
ATOM     24  N   UNL     1      -3.249  -6.555   7.817  1.00  0.00    -0.298 N 
ATOM     25  H   UNL     1      -3.504  -5.621   7.466  1.00  0.00     0.172 HD
BRANCH  24  26
ATOM     26  C   UNL     1      -2.885  -6.721   9.141  1.00  0.00     0.190 A 
ATOM     27  N   UNL     1      -3.708  -6.926  10.111  1.00  0.00    -0.220 NA
ATOM     28  S   UNL     1      -1.231  -6.706   9.737  1.00  0.00    -0.097 S 
ATOM     29  C   UNL     1      -3.201  -7.069  11.351  1.00  0.00     0.084 A 
ATOM     30  C   UNL     1      -1.807  -6.966  11.382  1.00  0.00     0.056 A 
ATOM     31  C   UNL     1      -3.885  -7.282  12.567  1.00  0.00     0.030 A 
ATOM     32  C   UNL     1      -1.117  -7.090  12.587  1.00  0.00     0.021 A 
ATOM     33  C   UNL     1      -3.191  -7.395  13.744  1.00  0.00     0.002 A 
ATOM     34  C   UNL     1      -1.806  -7.303  13.759  1.00  0.00     0.002 A 
ENDBRANCH  24  26
ENDBRANCH  18  22
ENDBRANCH   6  12
ENDBRANCH   2   3
ENDBRANCH   1   2
BRANCH   1  35
ATOM     35  C   UNL     1     -10.388  -8.258  10.576  1.00  0.00     0.230 C 
BRANCH  35  36
ATOM     36  O   UNL     1      -9.477  -7.207  10.904  1.00  0.00    -0.491 OA
BRANCH  36  37
ATOM     37  C   UNL     1      -8.786  -6.646   9.876  1.00  0.00     0.155 A 
ATOM     38  C   UNL     1      -9.447  -6.294   8.708  1.00  0.00     0.051 A 
ATOM     39  C   UNL     1      -7.417  -6.434   9.995  1.00  0.00     0.166 A 
ATOM     40  C   UNL     1      -8.750  -5.726   7.663  1.00  0.00     0.021 A 
ATOM     41  C   UNL     1      -6.712  -5.871   8.951  1.00  0.00     0.060 A 
ATOM     42  C   UNL     1      -7.376  -5.511   7.777  1.00  0.00     0.028 A 
ATOM     43  C   UNL     1      -6.649  -4.921   6.693  1.00  0.00    -0.066 C 
ATOM     44  F   UNL     1      -6.777  -6.778  11.134  1.00  0.00    -0.203 F 
BRANCH  43  45
ATOM     45  C   UNL     1      -6.054  -4.437   5.805  1.00  0.00    -0.082 C 
ATOM     46  C   UNL     1      -5.308  -3.830   4.691  1.00  0.00     0.174 C 
BRANCH  46  47
ATOM     47  N   UNL     1      -4.391  -2.808   5.213  1.00  0.00    -0.299 NA
ATOM     48  C   UNL     1      -3.230  -3.426   5.867  1.00  0.00     0.106 C 
ATOM     49  C   UNL     1      -3.967  -1.889   4.148  1.00  0.00     0.106 C 
ENDBRANCH  46  47
ENDBRANCH  43  45
ENDBRANCH  36  37
ENDBRANCH  35  36
ENDBRANCH   1  35
TORSDOF 12
ENDMDL
MODEL 4
REMARK VINA RESULT:    -7.204      4.824      7.675
REMARK INTER + INTRA:         -13.610
REMARK INTER:                 -10.606
REMARK INTRA:                  -3.004
REMARK UNBOUND:                -1.563
REMARK SMILES CN(C)CC#Cc1ccc(OCCCc2sc(N3CCc4cccc(C(=O)Nc5nc6ccccc6s5)c4C3)nc2C(=O)O)c(F)c1
REMARK SMILES IDX 13 1 14 2 15 3 40 4 41 5 17 6 16 7 42 8 43 9 44 10 18 12
REMARK SMILES IDX 19 13 39 14 20 15 38 16 21 17 25 18 22 19 24 20 23 21 26 22
REMARK SMILES IDX 27 23 28 24 29 26 30 27 37 28 31 29 36 30 32 31 35 32 33 33
REMARK SMILES IDX 34 34 12 35 11 36 10 37 9 38 45 39 8 40 47 41 7 42 6 43
REMARK SMILES IDX 46 44 5 45 4 46 2 47 1 48 3 49
REMARK H PARENT 44 11 28 25
ROOT
ATOM      1  C   UNL     1      -5.905  -6.286   1.955  1.00  0.00     0.047 C 
ENDROOT
BRANCH   1   2
ATOM      2  C   UNL     1      -5.970  -4.763   1.831  1.00  0.00     0.053 C 
BRANCH   2   3
ATOM      3  C   UNL     1      -5.029  -4.137   2.828  1.00  0.00     0.042 A 
ATOM      4  N   UNL     1      -4.058  -2.505   4.069  1.00  0.00    -0.213 NA
ATOM      5  C   UNL     1      -4.982  -2.826   3.158  1.00  0.00     0.164 A 
ATOM      6  C   UNL     1      -3.325  -3.471   4.525  1.00  0.00     0.186 A 
ATOM      7  S   UNL     1      -3.799  -4.985   3.762  1.00  0.00    -0.101 S 
BRANCH   5   8
ATOM      8  C   UNL     1      -5.878  -1.828   2.557  1.00  0.00     0.355 C 
ATOM      9  O   UNL     1      -5.561  -1.267   1.527  1.00  0.00    -0.244 OA
BRANCH   8  10
ATOM     10  O   UNL     1      -7.054  -1.537   3.149  1.00  0.00    -0.476 OA
ATOM     11  H   UNL     1      -7.900  -1.628   2.642  1.00  0.00     0.297 HD
ENDBRANCH   8  10
ENDBRANCH   5   8
BRANCH   6  12
ATOM     12  N   UNL     1      -2.323  -3.333   5.469  1.00  0.00    -0.343 N 
ATOM     13  C   UNL     1      -1.545  -2.109   5.235  1.00  0.00     0.124 C 
ATOM     14  C   UNL     1      -2.873  -3.341   6.828  1.00  0.00     0.155 C 
ATOM     15  C   UNL     1      -0.256  -2.188   6.052  1.00  0.00     0.057 C 
ATOM     16  C   UNL     1      -1.785  -3.090   7.838  1.00  0.00    -0.013 A 
ATOM     17  C   UNL     1      -0.574  -2.541   7.483  1.00  0.00    -0.040 A 
ATOM     18  C   UNL     1      -2.034  -3.407   9.179  1.00  0.00     0.045 A 
ATOM     19  C   UNL     1       0.395  -2.316   8.451  1.00  0.00     0.004 A 
ATOM     20  C   UNL     1      -1.056  -3.176  10.146  1.00  0.00     0.014 A 
ATOM     21  C   UNL     1       0.156  -2.632   9.775  1.00  0.00     0.001 A 
BRANCH  18  22
ATOM     22  C   UNL     1      -3.335  -3.989   9.571  1.00  0.00     0.257 C 
ATOM     23  O   UNL     1      -3.991  -3.470  10.453  1.00  0.00    -0.269 OA
ATOM     24  N   UNL     1      -3.795  -5.093   8.951  1.00  0.00    -0.298 N 
ATOM     25  H   UNL     1      -3.240  -5.533   8.204  1.00  0.00     0.172 HD
BRANCH  24  26
ATOM     26  C   UNL     1      -5.013  -5.637   9.318  1.00  0.00     0.190 A 
ATOM     27  N   UNL     1      -6.146  -5.330   8.786  1.00  0.00    -0.220 NA
ATOM     28  S   UNL     1      -5.233  -6.860  10.561  1.00  0.00    -0.097 S 
ATOM     29  C   UNL     1      -7.250  -5.946   9.253  1.00  0.00     0.084 A 
ATOM     30  C   UNL     1      -6.973  -6.853  10.280  1.00  0.00     0.056 A 
ATOM     31  C   UNL     1      -8.593  -5.774   8.854  1.00  0.00     0.030 A 
ATOM     32  C   UNL     1      -8.001  -7.579  10.877  1.00  0.00     0.021 A 
ATOM     33  C   UNL     1      -9.594  -6.493   9.457  1.00  0.00     0.002 A 
ATOM     34  C   UNL     1      -9.303  -7.398  10.467  1.00  0.00     0.002 A 
ENDBRANCH  24  26
ENDBRANCH  18  22
ENDBRANCH   6  12
ENDBRANCH   2   3
ENDBRANCH   1   2
BRANCH   1  35
ATOM     35  C   UNL     1      -7.044  -6.774   2.852  1.00  0.00     0.230 C 
BRANCH  35  36
ATOM     36  O   UNL     1      -6.692  -6.569   4.223  1.00  0.00    -0.491 OA
BRANCH  36  37
ATOM     37  C   UNL     1      -7.259  -7.401   5.136  1.00  0.00     0.155 A 
ATOM     38  C   UNL     1      -8.593  -7.762   5.010  1.00  0.00     0.051 A 
ATOM     39  C   UNL     1      -6.502  -7.883   6.198  1.00  0.00     0.166 A 
ATOM     40  C   UNL     1      -9.172  -8.605   5.935  1.00  0.00     0.021 A 
ATOM     41  C   UNL     1      -7.077  -8.724   7.130  1.00  0.00     0.060 A 
ATOM     42  C   UNL     1      -8.417  -9.091   7.002  1.00  0.00     0.028 A 
ATOM     43  C   UNL     1      -9.016  -9.968   7.964  1.00  0.00    -0.066 C 
ATOM     44  F   UNL     1      -5.204  -7.530   6.317  1.00  0.00    -0.203 F 
BRANCH  43  45
ATOM     45  C   UNL     1      -9.507 -10.686   8.753  1.00  0.00    -0.082 C 
ATOM     46  C   UNL     1     -10.123 -11.585   9.741  1.00  0.00     0.174 C 
BRANCH  46  47
ATOM     47  N   UNL     1     -10.897 -12.622   9.045  1.00  0.00    -0.299 NA
ATOM     48  C   UNL     1     -11.390 -13.634   9.989  1.00  0.00     0.106 C 
ATOM     49  C   UNL     1     -12.004 -12.029   8.283  1.00  0.00     0.106 C 
ENDBRANCH  46  47
ENDBRANCH  43  45
ENDBRANCH  36  37
ENDBRANCH  35  36
ENDBRANCH   1  35
TORSDOF 12
ENDMDL
MODEL 5
REMARK VINA RESULT:    -7.185      4.593     12.427
REMARK INTER + INTRA:         -13.578
REMARK INTER:                 -11.667
REMARK INTRA:                  -1.911
REMARK UNBOUND:                -1.563
REMARK SMILES CN(C)CC#Cc1ccc(OCCCc2sc(N3CCc4cccc(C(=O)Nc5nc6ccccc6s5)c4C3)nc2C(=O)O)c(F)c1
REMARK SMILES IDX 13 1 14 2 15 3 40 4 41 5 17 6 16 7 42 8 43 9 44 10 18 12
REMARK SMILES IDX 19 13 39 14 20 15 38 16 21 17 25 18 22 19 24 20 23 21 26 22
REMARK SMILES IDX 27 23 28 24 29 26 30 27 37 28 31 29 36 30 32 31 35 32 33 33
REMARK SMILES IDX 34 34 12 35 11 36 10 37 9 38 45 39 8 40 47 41 7 42 6 43
REMARK SMILES IDX 46 44 5 45 4 46 2 47 1 48 3 49
REMARK H PARENT 44 11 28 25
ROOT
ATOM      1  C   UNL     1      -7.617  -8.349   6.978  1.00  0.00     0.047 C 
ENDROOT
BRANCH   1   2
ATOM      2  C   UNL     1      -8.207  -8.923   8.268  1.00  0.00     0.053 C 
BRANCH   2   3
ATOM      3  C   UNL     1      -9.633  -9.344   8.025  1.00  0.00     0.042 A 
ATOM      4  N   UNL     1     -11.879  -9.440   8.325  1.00  0.00    -0.213 NA
ATOM      5  C   UNL     1     -10.712  -8.926   8.725  1.00  0.00     0.164 A 
ATOM      6  C   UNL     1     -11.844 -10.266   7.329  1.00  0.00     0.186 A 
ATOM      7  S   UNL     1     -10.183 -10.465   6.783  1.00  0.00    -0.101 S 
BRANCH   5   8
ATOM      8  C   UNL     1     -10.609  -7.978   9.844  1.00  0.00     0.355 C 
ATOM      9  O   UNL     1     -10.677  -8.380  10.989  1.00  0.00    -0.244 OA
BRANCH   8  10
ATOM     10  O   UNL     1     -10.437  -6.663   9.600  1.00  0.00    -0.476 OA
ATOM     11  H   UNL     1      -9.768  -6.147  10.116  1.00  0.00     0.297 HD
ENDBRANCH   8  10
ENDBRANCH   5   8
BRANCH   6  12
ATOM     12  N   UNL     1     -12.946 -10.896   6.778  1.00  0.00    -0.343 N 
ATOM     13  C   UNL     1     -12.680 -11.305   5.392  1.00  0.00     0.124 C 
ATOM     14  C   UNL     1     -13.354 -12.050   7.586  1.00  0.00     0.155 C 
ATOM     15  C   UNL     1     -14.010 -11.653   4.724  1.00  0.00     0.057 C 
ATOM     16  C   UNL     1     -14.489 -12.784   6.922  1.00  0.00    -0.013 A 
ATOM     17  C   UNL     1     -14.786 -12.612   5.590  1.00  0.00    -0.040 A 
ATOM     18  C   UNL     1     -15.241 -13.682   7.689  1.00  0.00     0.045 A 
ATOM     19  C   UNL     1     -15.835 -13.320   5.017  1.00  0.00     0.004 A 
ATOM     20  C   UNL     1     -16.291 -14.390   7.106  1.00  0.00     0.014 A 
ATOM     21  C   UNL     1     -16.584 -14.203   5.771  1.00  0.00     0.001 A 
BRANCH  18  22
ATOM     22  C   UNL     1     -14.923 -13.879   9.118  1.00  0.00     0.257 C 
ATOM     23  O   UNL     1     -15.572 -13.305   9.970  1.00  0.00    -0.269 OA
ATOM     24  N   UNL     1     -13.914 -14.697   9.478  1.00  0.00    -0.298 N 
ATOM     25  H   UNL     1     -13.364 -15.184   8.757  1.00  0.00     0.172 HD
BRANCH  24  26
ATOM     26  C   UNL     1     -13.617 -14.882  10.817  1.00  0.00     0.190 A 
ATOM     27  N   UNL     1     -14.377 -15.488  11.663  1.00  0.00    -0.220 NA
ATOM     28  S   UNL     1     -12.138 -14.343  11.601  1.00  0.00    -0.097 S 
ATOM     29  C   UNL     1     -13.949 -15.589  12.937  1.00  0.00     0.084 A 
ATOM     30  C   UNL     1     -12.701 -14.994  13.139  1.00  0.00     0.056 A 
ATOM     31  C   UNL     1     -14.596 -16.183  14.041  1.00  0.00     0.030 A 
ATOM     32  C   UNL     1     -12.109 -15.007  14.401  1.00  0.00     0.021 A 
ATOM     33  C   UNL     1     -14.002 -16.182  15.278  1.00  0.00     0.002 A 
ATOM     34  C   UNL     1     -12.757 -15.597  15.462  1.00  0.00     0.002 A 
ENDBRANCH  24  26
ENDBRANCH  18  22
ENDBRANCH   6  12
ENDBRANCH   2   3
ENDBRANCH   1   2
BRANCH   1  35
ATOM     35  C   UNL     1      -8.387  -7.089   6.582  1.00  0.00     0.230 C 
BRANCH  35  36
ATOM     36  O   UNL     1      -8.361  -6.155   7.664  1.00  0.00    -0.491 OA
BRANCH  36  37
ATOM     37  C   UNL     1      -7.179  -5.533   7.913  1.00  0.00     0.155 A 
ATOM     38  C   UNL     1      -6.511  -4.878   6.887  1.00  0.00     0.051 A 
ATOM     39  C   UNL     1      -6.638  -5.559   9.193  1.00  0.00     0.166 A 
ATOM     40  C   UNL     1      -5.311  -4.246   7.135  1.00  0.00     0.021 A 
ATOM     41  C   UNL     1      -5.435  -4.933   9.448  1.00  0.00     0.060 A 
ATOM     42  C   UNL     1      -4.764  -4.270   8.419  1.00  0.00     0.028 A 
ATOM     43  C   UNL     1      -3.518  -3.614   8.680  1.00  0.00    -0.066 C 
ATOM     44  F   UNL     1      -7.291  -6.197  10.189  1.00  0.00    -0.203 F 
BRANCH  43  45
ATOM     45  C   UNL     1      -2.497  -3.076   8.893  1.00  0.00    -0.082 C 
ATOM     46  C   UNL     1      -1.216  -2.403   9.162  1.00  0.00     0.174 C 
BRANCH  46  47
ATOM     47  N   UNL     1      -0.246  -2.759   8.117  1.00  0.00    -0.299 NA
ATOM     48  C   UNL     1      -0.473  -1.974   6.897  1.00  0.00     0.106 C 
ATOM     49  C   UNL     1       1.132  -2.594   8.600  1.00  0.00     0.106 C 
ENDBRANCH  46  47
ENDBRANCH  43  45
ENDBRANCH  36  37
ENDBRANCH  35  36
ENDBRANCH   1  35
TORSDOF 12
ENDMDL
