MODEL 1
REMARK minimizedAffinity -13.064291
REMARK minimizedRMSD -1
REMARK  Name = ml349_xtalA.pdb
REMARK  4 active torsions:
REMARK  status: ('A' for Active; 'I' for Inactive)
REMARK    1  A    between atoms: C8_2  and  C7_25
REMARK    2  A    between atoms: N_14  and  C4_24
REMARK    3  A    between atoms: C_15  and  O_16
REMARK    4  A    between atoms: O_16  and  C1_17
REMARK                            x       y       z     vdW  Elec       q    Type
REMARK                         _______ _______ _______ _____ _____    ______ ____
ROOT
ATOM      1  C6  71T A 301      27.943  -6.202  41.885  0.00  0.00    +0.000 C 
ATOM      2  C5  71T A 301      26.655  -5.639  41.358  0.00  0.00    +0.000 C 
ATOM      3  C19 71T A 301      26.982  -8.407  42.038  0.00  0.00    +0.000 C 
ATOM      4  N   71T A 301      25.920  -6.671  40.620  0.00  0.00    +0.000 N 
ATOM      5  N1  71T A 301      27.664  -7.336  42.771  0.00  0.00    +0.000 N 
ATOM      6  O3  71T A 301      27.836  -8.535  44.664  0.00  0.00    +0.000 OA
ATOM      7  C7  71T A 301      28.017  -7.483  44.066  0.00  0.00    +0.000 C 
ATOM      8  C20 71T A 301      25.696  -7.884  41.417  0.00  0.00    +0.000 C 
ENDROOT
BRANCH   7   9
ATOM      9  C8  71T A 301      28.700  -6.401  44.817  0.00  0.00    +0.000 A 
ATOM     10  C10 71T A 301      29.289  -4.310  45.685  0.00  0.00    +0.000 A 
ATOM     11  C11 71T A 301      30.151  -5.133  46.396  0.00  0.00    +0.000 A 
ATOM     12  C12 71T A 301      31.121  -4.624  47.342  0.00  0.00    +0.000 A 
ATOM     13  C13 71T A 301      32.258  -5.368  47.670  0.00  0.00    +0.000 A 
ATOM     14  C18 71T A 301      29.268  -2.834  45.933  0.00  0.00    +0.000 C 
ATOM     15  C17 71T A 301      30.963  -3.361  47.931  0.00  0.00    +0.000 A 
ATOM     16  C15 71T A 301      33.028  -3.617  49.125  0.00  0.00    +0.000 A 
ATOM     17  O1  71T A 301      29.849  -1.042  47.756  0.00  0.00    +0.000 OA
ATOM     18  S1  71T A 301      29.934  -6.812  45.956  0.00  0.00    +0.000 S 
ATOM     19  O2  71T A 301      28.439  -2.975  48.346  0.00  0.00    +0.000 OA
ATOM     20  C9  71T A 301      28.467  -5.044  44.783  0.00  0.00    +0.000 A 
ATOM     21  C14 71T A 301      33.202  -4.864  48.554  0.00  0.00    +0.000 A 
ATOM     22  C16 71T A 301      31.910  -2.855  48.815  0.00  0.00    +0.000 A 
ATOM     23  S   71T A 301      29.558  -2.443  47.619  0.00  0.00    +0.000 S 
ENDBRANCH   7   9
BRANCH   4  28
ATOM     24  C21 71T A 301      24.985  -5.094  38.992  0.00  0.00    +0.000 A 
ATOM     25  C2  71T A 301      22.597  -6.492  38.948  0.00  0.00    +0.000 A 
ATOM     26  C1  71T A 301      22.740  -5.343  38.190  0.00  0.00    +0.000 A 
ATOM     27  C3  71T A 301      23.645  -6.928  39.738  0.00  0.00    +0.000 A 
ATOM     28  C4  71T A 301      24.852  -6.236  39.778  0.00  0.00    +0.000 A 
ATOM     29  C22 71T A 301      23.936  -4.649  38.203  0.00  0.00    +0.000 A 
BRANCH  26  31
ATOM     30  C   71T A 301      20.789  -5.665  36.822  0.00  0.00    +0.000 C 
ATOM     31  O   71T A 301      21.770  -4.792  37.393  0.00  0.00    +0.000 OA
ENDBRANCH  26  31
ENDBRANCH   4  28
TORSDOF 3
ENDMDL
MODEL 2
REMARK minimizedAffinity -10.0821238
REMARK minimizedRMSD -1
REMARK  Name = ml349_xtalA.pdb
REMARK  4 active torsions:
REMARK  status: ('A' for Active; 'I' for Inactive)
REMARK    1  A    between atoms: C8_2  and  C7_25
REMARK    2  A    between atoms: N_14  and  C4_24
REMARK    3  A    between atoms: C_15  and  O_16
REMARK    4  A    between atoms: O_16  and  C1_17
REMARK                            x       y       z     vdW  Elec       q    Type
REMARK                         _______ _______ _______ _____ _____    ______ ____
ROOT
ATOM      1  C6  71T A 301      29.848  -2.991  49.339  0.00  0.00    +0.000 C 
ATOM      2  C5  71T A 301      29.548  -1.573  49.734  0.00  0.00    +0.000 C 
ATOM      3  C19 71T A 301      32.204  -2.657  49.722  0.00  0.00    +0.000 C 
ATOM      4  N   71T A 301      30.542  -1.100  50.702  0.00  0.00    +0.000 N 
ATOM      5  N1  71T A 301      31.187  -3.069  48.749  0.00  0.00    +0.000 N 
ATOM      6  O3  71T A 301      32.697  -3.653  47.190  0.00  0.00    +0.000 OA
ATOM      7  C7  71T A 301      31.527  -3.516  47.521  0.00  0.00    +0.000 C 
ATOM      8  C20 71T A 301      31.920  -1.248  50.217  0.00  0.00    +0.000 C 
ENDROOT
BRANCH   7   9
ATOM      9  C8  71T A 301      30.504  -3.927  46.529  0.00  0.00    +0.000 A 
ATOM     10  C10 71T A 301      28.841  -3.883  44.884  0.00  0.00    +0.000 A 
ATOM     11  C11 71T A 301      29.070  -5.249  44.978  0.00  0.00    +0.000 A 
ATOM     12  C12 71T A 301      28.328  -6.225  44.209  0.00  0.00    +0.000 A 
ATOM     13  C13 71T A 301      28.224  -7.550  44.644  0.00  0.00    +0.000 A 
ATOM     14  C18 71T A 301      27.853  -3.344  43.898  0.00  0.00    +0.000 C 
ATOM     15  C17 71T A 301      27.670  -5.863  43.024  0.00  0.00    +0.000 A 
ATOM     16  C15 71T A 301      26.845  -8.100  42.754  0.00  0.00    +0.000 A 
ATOM     17  O1  71T A 301      26.660  -3.937  41.640  0.00  0.00    +0.000 OA
ATOM     18  S1  71T A 301      30.308  -5.605  46.162  0.00  0.00    +0.000 S 
ATOM     19  O2  71T A 301      29.114  -4.096  41.806  0.00  0.00    +0.000 OA
ATOM     20  C9  71T A 301      29.662  -3.137  45.776  0.00  0.00    +0.000 A 
ATOM     21  C14 71T A 301      27.486  -8.475  43.921  0.00  0.00    +0.000 A 
ATOM     22  C16 71T A 301      26.928  -6.791  42.300  0.00  0.00    +0.000 A 
ATOM     23  S   71T A 301      27.824  -4.277  42.412  0.00  0.00    +0.000 S 
ENDBRANCH   7   9
BRANCH   4  28
ATOM     24  C21 71T A 301      28.948   0.298  51.936  0.00  0.00    +0.000 A 
ATOM     25  C2  71T A 301      30.882   2.242  52.311  0.00  0.00    +0.000 A 
ATOM     26  C1  71T A 301      29.598   2.442  52.788  0.00  0.00    +0.000 A 
ATOM     27  C3  71T A 301      31.190   1.075  51.634  0.00  0.00    +0.000 A 
ATOM     28  C4  71T A 301      30.229   0.088  51.430  0.00  0.00    +0.000 A 
ATOM     29  C22 71T A 301      28.634   1.467  52.609  0.00  0.00    +0.000 A 
BRANCH  26  31
ATOM     30  C   71T A 301      28.042   3.434  54.328  0.00  0.00    +0.000 C 
ATOM     31  O   71T A 301      29.161   3.563  53.445  0.00  0.00    +0.000 OA
ENDBRANCH  26  31
ENDBRANCH   4  28
TORSDOF 3
ENDMDL
