REMARK  Name = ml349_xtalA.pdb
REMARK  4 active torsions:
REMARK  status: ('A' for Active; 'I' for Inactive)
REMARK    1  A    between atoms: C8_2  and  C7_25
REMARK    2  A    between atoms: N_14  and  C4_24
REMARK    3  A    between atoms: C_15  and  O_16
REMARK    4  A    between atoms: O_16  and  C1_17
REMARK                            x       y       z     vdW  Elec       q    Type
REMARK                         _______ _______ _______ _____ _____    ______ ____
ROOT
ATOM      1  C6  71T A 301      28.274  -6.041  42.040  0.00  0.00    +0.000 C 
ATOM      2  C5  71T A 301      26.939  -5.575  41.535  0.00  0.00    +0.000 C 
ATOM      3  C19 71T A 301      27.520  -8.330  42.084  0.00  0.00    +0.000 C 
ATOM      4  N   71T A 301      26.302  -6.634  40.746  0.00  0.00    +0.000 N 
ATOM      5  N1  71T A 301      28.101  -7.237  42.870  0.00  0.00    +0.000 N 
ATOM      6  O3  71T A 301      28.383  -8.504  44.705  0.00  0.00    +0.000 OA
ATOM      7  C7  71T A 301      28.466  -7.412  44.158  0.00  0.00    +0.000 C 
ATOM      8  C20 71T A 301      26.191  -7.899  41.483  0.00  0.00    +0.000 C 
ENDROOT
BRANCH   7   9
ATOM      9  C8  71T A 301      29.046  -6.309  44.962  0.00  0.00    +0.000 A 
ATOM     10  C10 71T A 301      29.393  -4.240  45.997  0.00  0.00    +0.000 A 
ATOM     11  C11 71T A 301      30.434  -4.976  46.545  0.00  0.00    +0.000 A 
ATOM     12  C12 71T A 301      31.402  -4.408  47.459  0.00  0.00    +0.000 A 
ATOM     13  C13 71T A 301      32.665  -4.988  47.614  0.00  0.00    +0.000 A 
ATOM     14  C18 71T A 301      29.173  -2.816  46.402  0.00  0.00    +0.000 C 
ATOM     15  C17 71T A 301      31.112  -3.247  48.190  0.00  0.00    +0.000 A 
ATOM     16  C15 71T A 301      33.297  -3.278  49.180  0.00  0.00    +0.000 A 
ATOM     17  O1  71T A 301      29.649  -1.130  48.352  0.00  0.00    +0.000 OA
ATOM     18  S1  71T A 301      30.432  -6.620  45.948  0.00  0.00    +0.000 S 
ATOM     19  O2  71T A 301      28.610  -3.310  48.845  0.00  0.00    +0.000 OA
ATOM     20  C9  71T A 301      28.609  -5.009  45.091  0.00  0.00    +0.000 A 
ATOM     21  C14 71T A 301      33.602  -4.423  48.467  0.00  0.00    +0.000 A 
ATOM     22  C16 71T A 301      32.052  -2.679  49.043  0.00  0.00    +0.000 A 
ATOM     23  S   71T A 301      29.561  -2.541  48.091  0.00  0.00    +0.000 S 
ENDBRANCH   7   9
BRANCH   4  28
ATOM     24  C21 71T A 301      25.296  -5.178  39.048  0.00  0.00    +0.000 A 
ATOM     25  C2  71T A 301      22.910  -6.570  39.210  0.00  0.00    +0.000 A 
ATOM     26  C1  71T A 301      23.019  -5.480  38.364  0.00  0.00    +0.000 A 
ATOM     27  C3  71T A 301      23.992  -6.950  39.984  0.00  0.00    +0.000 A 
ATOM     28  C4  71T A 301      25.199  -6.259  39.921  0.00  0.00    +0.000 A 
ATOM     29  C22 71T A 301      24.214  -4.790  38.275  0.00  0.00    +0.000 A 
BRANCH  26  31
ATOM     30  C   71T A 301      20.764  -5.683  37.556  0.00  0.00    +0.000 C 
ATOM     31  O   71T A 301      22.015  -4.987  37.571  0.00  0.00    +0.000 OA
ENDBRANCH  26  31
ENDBRANCH   4  28
TORSDOF 3
