MODEL 1
REMARK VINA RESULT:    -4.908      0.000      0.000
REMARK INTER + INTRA:         -13.694
REMARK INTER:                 -10.790
REMARK INTRA:                  -2.904
REMARK UNBOUND:                -2.904
REMARK SMILES CO[C@H]1/C=C\C=C(/C)C(=O)NC2=CC(=O)C(NCCN(C)C)=C(C[C@@H](C)C[C@H](OC)[C@H](O)[C@@H](C)/C=C(\C)[C@@H]1OC(N)=O)C2=O
REMARK SMILES IDX 7 1 8 2 6 3 9 4 11 5 10 6 12 8 23 9 16 10 43 11 14 12 44 13
REMARK SMILES IDX 15 14 13 15 24 16 25 17 26 18 27 19 28 20 29 22 30 23 17 24
REMARK SMILES IDX 18 26 19 27 20 28 21 29 22 30 5 31 4 32 3 33 2 34 1 35 38 36
REMARK SMILES IDX 39 37 40 38 41 39 42 40 36 43 35 44 37 45 33 46 34 47 31 48
REMARK SMILES IDX 32 50
REMARK H PARENT 11 7 17 25 41 41 41 42 32 51
REMARK Flexibility Score:   65.900
ROOT
ATOM      1  C   UNL     1      76.123 -26.550  64.399  1.00  0.00     0.014 C 
ATOM      2  C   UNL     1      75.564 -27.926  64.179  1.00  0.00     0.050 C 
ATOM      3  C   UNL     1      75.786 -25.512  63.596  1.00  0.00     0.009 C 
ENDROOT
BRANCH   1   4
ATOM      4  C   UNL     1      77.056 -26.285  65.488  1.00  0.00     0.251 C 
ATOM      5  N   UNL     1      77.836 -27.214  66.047  1.00  0.00    -0.319 N 
ATOM      6  O   UNL     1      77.119 -25.139  65.895  1.00  0.00    -0.269 OA
ATOM      7  H   UNL     1      77.586 -28.211  65.978  1.00  0.00     0.170 HD
BRANCH   5   8
ATOM      8  C   UNL     1      78.983 -26.830  66.717  1.00  0.00     0.093 C 
ATOM      9  C   UNL     1      81.501 -26.608  66.712  1.00  0.00     0.029 C 
ATOM     10  C   UNL     1      81.453 -26.010  67.924  1.00  0.00     0.090 C 
ATOM     11  C   UNL     1      80.311 -27.081  66.099  1.00  0.00     0.207 C 
ATOM     12  C   UNL     1      80.140 -25.838  68.612  1.00  0.00     0.204 C 
ATOM     13  O   UNL     1      80.396 -27.728  65.073  1.00  0.00    -0.287 OA
ATOM     14  O   UNL     1      80.093 -25.346  69.722  1.00  0.00    -0.288 OA
ATOM     15  C   UNL     1      78.912 -26.263  67.940  1.00  0.00     0.084 C 
BRANCH   9  16
ATOM     16  C   UNL     1      82.810 -26.805  65.993  1.00  0.00     0.045 C 
BRANCH  16  17
ATOM     17  C   UNL     1      83.221 -25.491  65.319  1.00  0.00    -0.007 C 
ATOM     18  C   UNL     1      84.429 -24.909  66.057  1.00  0.00     0.008 C 
BRANCH  17  19
ATOM     19  C   UNL     1      83.589 -25.758  63.862  1.00  0.00     0.038 C 
BRANCH  19  20
ATOM     20  C   UNL     1      82.404 -26.357  63.105  1.00  0.00     0.147 CG0
ATOM     21  G   UNL     1      81.547 -25.227  62.530  1.00  0.00     0.000 G0
BRANCH  20  22
ATOM     22  O   UNL     1      82.878 -27.181  62.039  1.00  0.00    -0.379 OA
ATOM     23  C   UNL     1      84.221 -27.545  62.362  1.00  0.00     0.195 C 
ENDBRANCH  20  22
ENDBRANCH  19  20
ENDBRANCH  17  19
ENDBRANCH  16  17
ENDBRANCH   9  16
BRANCH  10  24
ATOM     24  N   UNL     1      82.594 -25.560  68.541  1.00  0.00    -0.380 N 
ATOM     25  H   UNL     1      82.948 -24.614  68.341  1.00  0.00     0.160 HD
BRANCH  24  26
ATOM     26  C   UNL     1      83.310 -26.424  69.482  1.00  0.00     0.128 C 
BRANCH  26  27
ATOM     27  C   UNL     1      84.818 -26.225  69.315  1.00  0.00     0.105 C 
BRANCH  27  28
ATOM     28  N   UNL     1      85.499 -27.521  69.431  1.00  0.00    -0.308 NA
ATOM     29  C   UNL     1      84.787 -28.281  70.467  1.00  0.00     0.105 C 
ATOM     30  C   UNL     1      85.278 -28.228  68.162  1.00  0.00     0.105 C 
ENDBRANCH  27  28
ENDBRANCH  26  27
ENDBRANCH  24  26
ENDBRANCH  10  24
ENDBRANCH   5   8
ENDBRANCH   1   4
BRANCH   3  31
ATOM     31  C   UNL     1      74.857 -25.642  62.485  1.00  0.00    -0.001 C 
ATOM     32  C   UNL     1      75.171 -25.189  61.270  1.00  0.00     0.009 C 
BRANCH  32  33
ATOM     33  C   UNL     1      76.492 -24.529  60.981  1.00  0.00     0.186 C 
BRANCH  33  34
ATOM     34  O   UNL     1      76.288 -23.486  60.021  1.00  0.00    -0.373 OA
ATOM     35  C   UNL     1      76.599 -22.255  60.677  1.00  0.00     0.196 C 
ENDBRANCH  33  34
BRANCH  33  36
ATOM     36  C   UNL     1      77.470 -25.556  60.406  1.00  0.00     0.237 C 
BRANCH  36  37
ATOM     37  O   UNL     1      78.129 -24.998  59.239  1.00  0.00    -0.439 OA
BRANCH  37  38
ATOM     38  C   UNL     1      78.809 -25.800  58.401  1.00  0.00     0.405 C 
ATOM     39  N   UNL     1      78.252 -26.947  57.963  1.00  0.00    -0.335 N 
ATOM     40  O   UNL     1      79.927 -25.491  58.037  1.00  0.00    -0.225 OA
ATOM     41  H   UNL     1      78.773 -27.561  57.321  1.00  0.00     0.163 HD
ATOM     42  H   UNL     1      77.305 -27.210  58.271  1.00  0.00     0.163 HD
ENDBRANCH  37  38
ENDBRANCH  36  37
BRANCH  36  43
ATOM     43  C   UNL     1      78.505 -25.914  61.446  1.00  0.00    -0.034 C 
ATOM     44  C   UNL     1      79.103 -24.952  62.101  1.00  0.00    -0.018 C 
ATOM     45  C   UNL     1      78.818 -27.365  61.706  1.00  0.00     0.043 C 
BRANCH  44  46
ATOM     46  C   UNL     1      80.145 -25.199  63.158  1.00  0.00     0.040 C 
ATOM     47  C   UNL     1      80.115 -24.060  64.185  1.00  0.00     0.015 C 
BRANCH  46  48
ATOM     48  C   UNL     1      81.529 -25.224  62.499  1.00  0.00     0.150 CG0
ATOM     49  G   UNL     1      82.382 -26.332  63.120  1.00  0.00     0.000 G0
BRANCH  48  50
ATOM     50  O   UNL     1      82.170 -23.963  62.699  1.00  0.00    -0.390 OA
ATOM     51  H   UNL     1      83.152 -24.085  62.675  1.00  0.00     0.211 HD
ENDBRANCH  48  50
ENDBRANCH  46  48
ENDBRANCH  44  46
ENDBRANCH  36  43
ENDBRANCH  33  36
ENDBRANCH  32  33
ENDBRANCH   3  31
TORSDOF 9
ENDMDL
MODEL 2
REMARK VINA RESULT:    -4.628      2.565      4.839
REMARK INTER + INTRA:         -13.077
REMARK INTER:                 -10.578
REMARK INTRA:                  -2.500
REMARK UNBOUND:                -2.904
REMARK SMILES CO[C@H]1/C=C\C=C(/C)C(=O)NC2=CC(=O)C(NCCN(C)C)=C(C[C@@H](C)C[C@H](OC)[C@H](O)[C@@H](C)/C=C(\C)[C@@H]1OC(N)=O)C2=O
REMARK SMILES IDX 7 1 8 2 6 3 9 4 11 5 10 6 12 8 23 9 16 10 43 11 14 12 44 13
REMARK SMILES IDX 15 14 13 15 24 16 25 17 26 18 27 19 28 20 29 22 30 23 17 24
REMARK SMILES IDX 18 26 19 27 20 28 21 29 22 30 5 31 4 32 3 33 2 34 1 35 38 36
REMARK SMILES IDX 39 37 40 38 41 39 42 40 36 43 35 44 37 45 33 46 34 47 31 48
REMARK SMILES IDX 32 50
REMARK H PARENT 11 7 17 25 41 41 41 42 32 51
REMARK Flexibility Score:   65.900
ROOT
ATOM      1  C   UNL     1      78.999 -26.914  61.590  1.00  0.00     0.014 C 
ATOM      2  C   UNL     1      78.807 -25.625  60.846  1.00  0.00     0.050 C 
ATOM      3  C   UNL     1      78.046 -27.877  61.597  1.00  0.00     0.009 C 
ENDROOT
BRANCH   1   4
ATOM      4  C   UNL     1      80.224 -27.173  62.339  1.00  0.00     0.251 C 
ATOM      5  N   UNL     1      81.341 -26.452  62.217  1.00  0.00    -0.319 N 
ATOM      6  O   UNL     1      80.205 -28.103  63.124  1.00  0.00    -0.269 OA
ATOM      7  H   UNL     1      81.512 -25.901  61.364  1.00  0.00     0.170 HD
BRANCH   5   8
ATOM      8  C   UNL     1      82.267 -26.448  63.244  1.00  0.00     0.093 C 
ATOM      9  C   UNL     1      82.998 -25.507  65.473  1.00  0.00     0.029 C 
ATOM     10  C   UNL     1      84.040 -26.368  65.497  1.00  0.00     0.090 C 
ATOM     11  C   UNL     1      82.125 -25.470  64.354  1.00  0.00     0.207 C 
ATOM     12  C   UNL     1      84.264 -27.290  64.346  1.00  0.00     0.204 C 
ATOM     13  O   UNL     1      81.275 -24.602  64.300  1.00  0.00    -0.287 OA
ATOM     14  O   UNL     1      85.226 -28.033  64.338  1.00  0.00    -0.288 OA
ATOM     15  C   UNL     1      83.318 -27.296  63.231  1.00  0.00     0.084 C 
BRANCH   9  16
ATOM     16  C   UNL     1      82.747 -24.557  66.615  1.00  0.00     0.045 C 
BRANCH  16  17
ATOM     17  C   UNL     1      82.184 -25.337  67.809  1.00  0.00    -0.007 C 
ATOM     18  C   UNL     1      81.841 -24.353  68.930  1.00  0.00     0.008 C 
BRANCH  17  19
ATOM     19  C   UNL     1      80.925 -26.087  67.381  1.00  0.00     0.038 C 
BRANCH  19  20
ATOM     20  C   UNL     1      79.670 -25.339  67.826  1.00  0.00     0.147 CG0
ATOM     21  G   UNL     1      79.017 -24.677  66.611  1.00  0.00     0.000 G0
BRANCH  20  22
ATOM     22  O   UNL     1      78.747 -26.253  68.421  1.00  0.00    -0.379 OA
ATOM     23  C   UNL     1      78.820 -26.052  69.834  1.00  0.00     0.195 C 
ENDBRANCH  20  22
ENDBRANCH  19  20
ENDBRANCH  17  19
ENDBRANCH  16  17
ENDBRANCH   9  16
BRANCH  10  24
ATOM     24  N   UNL     1      84.904 -26.408  66.563  1.00  0.00    -0.380 N 
ATOM     25  H   UNL     1      85.581 -25.645  66.707  1.00  0.00     0.160 HD
BRANCH  24  26
ATOM     26  C   UNL     1      84.866 -27.535  67.498  1.00  0.00     0.128 C 
BRANCH  26  27
ATOM     27  C   UNL     1      86.118 -27.514  68.378  1.00  0.00     0.105 C 
BRANCH  27  28
ATOM     28  N   UNL     1      86.708 -28.858  68.422  1.00  0.00    -0.308 NA
ATOM     29  C   UNL     1      88.010 -28.725  69.089  1.00  0.00     0.105 C 
ATOM     30  C   UNL     1      85.859 -29.663  69.310  1.00  0.00     0.105 C 
ENDBRANCH  27  28
ENDBRANCH  26  27
ENDBRANCH  24  26
ENDBRANCH  10  24
ENDBRANCH   5   8
ENDBRANCH   1   4
BRANCH   3  31
ATOM     31  C   UNL     1      76.787 -27.746  60.879  1.00  0.00    -0.001 C 
ATOM     32  C   UNL     1      75.646 -27.510  61.530  1.00  0.00     0.009 C 
BRANCH  32  33
ATOM     33  C   UNL     1      75.598 -27.362  63.027  1.00  0.00     0.186 C 
BRANCH  33  34
ATOM     34  O   UNL     1      74.262 -27.616  63.473  1.00  0.00    -0.373 OA
ATOM     35  C   UNL     1      73.583 -28.264  62.395  1.00  0.00     0.196 C 
ENDBRANCH  33  34
BRANCH  33  36
ATOM     36  C   UNL     1      75.995 -25.937  63.419  1.00  0.00     0.237 C 
BRANCH  36  37
ATOM     37  O   UNL     1      74.813 -25.095  63.452  1.00  0.00    -0.439 OA
BRANCH  37  38
ATOM     38  C   UNL     1      74.706 -24.050  62.613  1.00  0.00     0.405 C 
ATOM     39  N   UNL     1      75.593 -23.037  62.679  1.00  0.00    -0.335 N 
ATOM     40  O   UNL     1      73.808 -24.018  61.793  1.00  0.00    -0.225 OA
ATOM     41  H   UNL     1      75.510 -22.237  62.036  1.00  0.00     0.163 HD
ATOM     42  H   UNL     1      76.353 -23.063  63.373  1.00  0.00     0.163 HD
ENDBRANCH  37  38
ENDBRANCH  36  37
BRANCH  36  43
ATOM     43  C   UNL     1      76.645 -25.945  64.783  1.00  0.00    -0.034 C 
ATOM     44  C   UNL     1      76.833 -24.806  65.401  1.00  0.00    -0.018 C 
ATOM     45  C   UNL     1      77.054 -27.258  65.398  1.00  0.00     0.043 C 
BRANCH  44  46
ATOM     46  C   UNL     1      77.467 -24.702  66.761  1.00  0.00     0.040 C 
ATOM     47  C   UNL     1      77.008 -23.409  67.444  1.00  0.00     0.015 C 
BRANCH  46  48
ATOM     48  C   UNL     1      78.991 -24.655  66.599  1.00  0.00     0.150 CG0
ATOM     49  G   UNL     1      79.663 -25.335  67.794  1.00  0.00     0.000 G0
BRANCH  48  50
ATOM     50  O   UNL     1      79.415 -23.292  66.529  1.00  0.00    -0.390 OA
ATOM     51  H   UNL     1      78.657 -22.724  66.243  1.00  0.00     0.211 HD
ENDBRANCH  48  50
ENDBRANCH  46  48
ENDBRANCH  44  46
ENDBRANCH  36  43
ENDBRANCH  33  36
ENDBRANCH  32  33
ENDBRANCH   3  31
TORSDOF 9
ENDMDL
MODEL 3
REMARK VINA RESULT:    -4.512      2.727      8.981
REMARK INTER + INTRA:         -12.823
REMARK INTER:                 -10.203
REMARK INTRA:                  -2.620
REMARK UNBOUND:                -2.904
REMARK SMILES CO[C@H]1/C=C\C=C(/C)C(=O)NC2=CC(=O)C(NCCN(C)C)=C(C[C@@H](C)C[C@H](OC)[C@H](O)[C@@H](C)/C=C(\C)[C@@H]1OC(N)=O)C2=O
REMARK SMILES IDX 7 1 8 2 6 3 9 4 11 5 10 6 12 8 23 9 16 10 43 11 14 12 44 13
REMARK SMILES IDX 15 14 13 15 24 16 25 17 26 18 27 19 28 20 29 22 30 23 17 24
REMARK SMILES IDX 18 26 19 27 20 28 21 29 22 30 5 31 4 32 3 33 2 34 1 35 38 36
REMARK SMILES IDX 39 37 40 38 41 39 42 40 36 43 35 44 37 45 33 46 34 47 31 48
REMARK SMILES IDX 32 50
REMARK H PARENT 11 7 17 25 41 41 41 42 32 51
REMARK Flexibility Score:   65.900
ROOT
ATOM      1  C   UNL     1      82.709 -24.544  64.106  1.00  0.00     0.014 C 
ATOM      2  C   UNL     1      83.995 -24.488  63.333  1.00  0.00     0.050 C 
ATOM      3  C   UNL     1      82.692 -24.463  65.459  1.00  0.00     0.009 C 
ENDROOT
BRANCH   1   4
ATOM      4  C   UNL     1      81.429 -24.693  63.424  1.00  0.00     0.251 C 
ATOM      5  N   UNL     1      81.244 -25.448  62.338  1.00  0.00    -0.319 N 
ATOM      6  O   UNL     1      80.480 -24.091  63.893  1.00  0.00    -0.269 OA
ATOM      7  H   UNL     1      82.042 -25.689  61.732  1.00  0.00     0.170 HD
BRANCH   5   8
ATOM      8  C   UNL     1      79.976 -25.904  62.031  1.00  0.00     0.093 C 
ATOM      9  C   UNL     1      78.213 -27.694  62.307  1.00  0.00     0.029 C 
ATOM     10  C   UNL     1      77.350 -26.961  61.568  1.00  0.00     0.090 C 
ATOM     11  C   UNL     1      79.541 -27.240  62.517  1.00  0.00     0.207 C 
ATOM     12  C   UNL     1      77.795 -25.663  60.982  1.00  0.00     0.204 C 
ATOM     13  O   UNL     1      80.333 -27.976  63.074  1.00  0.00    -0.287 OA
ATOM     14  O   UNL     1      77.041 -25.022  60.277  1.00  0.00    -0.288 OA
ATOM     15  C   UNL     1      79.142 -25.169  61.264  1.00  0.00     0.084 C 
BRANCH   9  16
ATOM     16  C   UNL     1      77.798 -29.012  62.907  1.00  0.00     0.045 C 
BRANCH  16  17
ATOM     17  C   UNL     1      77.111 -28.762  64.254  1.00  0.00    -0.007 C 
ATOM     18  C   UNL     1      76.602 -30.095  64.808  1.00  0.00     0.008 C 
BRANCH  17  19
ATOM     19  C   UNL     1      78.110 -28.148  65.230  1.00  0.00     0.038 C 
BRANCH  19  20
ATOM     20  C   UNL     1      77.455 -27.039  66.051  1.00  0.00     0.147 CG0
ATOM     21  G   UNL     1      77.804 -27.228  67.529  1.00  0.00     0.000 G0
BRANCH  20  22
ATOM     22  O   UNL     1      77.931 -25.765  65.612  1.00  0.00    -0.379 OA
ATOM     23  C   UNL     1      76.847 -25.132  64.928  1.00  0.00     0.195 C 
ENDBRANCH  20  22
ENDBRANCH  19  20
ENDBRANCH  17  19
ENDBRANCH  16  17
ENDBRANCH   9  16
BRANCH  10  24
ATOM     24  N   UNL     1      76.066 -27.391  61.340  1.00  0.00    -0.380 N 
ATOM     25  H   UNL     1      75.899 -28.239  60.781  1.00  0.00     0.160 HD
BRANCH  24  26
ATOM     26  C   UNL     1      74.933 -26.645  61.892  1.00  0.00     0.128 C 
BRANCH  26  27
ATOM     27  C   UNL     1      73.790 -27.610  62.211  1.00  0.00     0.105 C 
BRANCH  27  28
ATOM     28  N   UNL     1      72.504 -26.955  61.941  1.00  0.00    -0.308 NA
ATOM     29  C   UNL     1      71.555 -27.458  62.942  1.00  0.00     0.105 C 
ATOM     30  C   UNL     1      72.693 -25.524  62.219  1.00  0.00     0.105 C 
ENDBRANCH  27  28
ENDBRANCH  26  27
ENDBRANCH  24  26
ENDBRANCH  10  24
ENDBRANCH   5   8
ENDBRANCH   1   4
BRANCH   3  31
ATOM     31  C   UNL     1      83.899 -24.299  66.255  1.00  0.00    -0.001 C 
ATOM     32  C   UNL     1      83.834 -23.890  67.524  1.00  0.00     0.009 C 
BRANCH  32  33
ATOM     33  C   UNL     1      82.524 -23.583  68.197  1.00  0.00     0.186 C 
BRANCH  33  34
ATOM     34  O   UNL     1      82.779 -22.795  69.365  1.00  0.00    -0.373 OA
ATOM     35  C   UNL     1      82.444 -21.446  69.033  1.00  0.00     0.196 C 
ENDBRANCH  33  34
BRANCH  33  36
ATOM     36  C   UNL     1      81.837 -24.886  68.612  1.00  0.00     0.237 C 
BRANCH  36  37
ATOM     37  O   UNL     1      81.970 -25.070  70.046  1.00  0.00    -0.439 OA
BRANCH  37  38
ATOM     38  C   UNL     1      82.975 -25.814  70.540  1.00  0.00     0.405 C 
ATOM     39  N   UNL     1      84.041 -25.217  71.110  1.00  0.00    -0.335 N 
ATOM     40  O   UNL     1      82.921 -27.027  70.474  1.00  0.00    -0.225 OA
ATOM     41  H   UNL     1      84.810 -25.788  71.488  1.00  0.00     0.163 HD
ATOM     42  H   UNL     1      84.086 -24.190  71.166  1.00  0.00     0.163 HD
ENDBRANCH  37  38
ENDBRANCH  36  37
BRANCH  36  43
ATOM     43  C   UNL     1      80.373 -24.832  68.245  1.00  0.00    -0.034 C 
ATOM     44  C   UNL     1      79.611 -25.857  68.530  1.00  0.00    -0.018 C 
ATOM     45  C   UNL     1      79.828 -23.601  67.568  1.00  0.00     0.043 C 
BRANCH  44  46
ATOM     46  C   UNL     1      78.141 -25.903  68.211  1.00  0.00     0.040 C 
ATOM     47  C   UNL     1      77.331 -25.796  69.509  1.00  0.00     0.015 C 
BRANCH  46  48
ATOM     48  C   UNL     1      77.817 -27.245  67.544  1.00  0.00     0.150 CG0
ATOM     49  G   UNL     1      77.438 -27.020  66.078  1.00  0.00     0.000 G0
BRANCH  48  50
ATOM     50  O   UNL     1      76.724 -27.860  68.227  1.00  0.00    -0.390 OA
ATOM     51  H   UNL     1      75.871 -27.539  67.842  1.00  0.00     0.211 HD
ENDBRANCH  48  50
ENDBRANCH  46  48
ENDBRANCH  44  46
ENDBRANCH  36  43
ENDBRANCH  33  36
ENDBRANCH  32  33
ENDBRANCH   3  31
TORSDOF 9
ENDMDL
