REMARK SMILES [NH-]C(=[NH2+])Nc1ccc2ccccc2c1
REMARK SMILES IDX 3 1 2 2 4 3 1 7 5 9 6 10 14 11 7 12 13 13 8 14 12 15 9 16
REMARK SMILES IDX 11 17 10 18
REMARK H PARENT 3 4 3 5 4 6 1 8
ROOT
ATOM      1  N   UNL     1       2.818   2.371   0.152  1.00  0.00    -0.370 N 
ATOM      2  C   UNL     1       2.454   1.099   0.429  1.00  0.00     0.190 C 
ATOM      3  N   UNL     1       3.290   0.385   1.224  1.00  0.00    -0.327 N 
ATOM      4  H   UNL     1       2.068   3.004  -0.088  1.00  0.00     0.159 HD
ATOM      5  H   UNL     1       3.441   2.763   0.852  1.00  0.00     0.159 HD
ATOM      6  H   UNL     1       2.911  -0.529   1.448  1.00  0.00     0.170 HD
ENDROOT
BRANCH   2   7
ATOM      7  N   UNL     1       1.335   0.606   0.026  1.00  0.00    -0.269 NA
ATOM      8  H   UNL     1       0.865   1.294  -0.565  1.00  0.00     0.191 HD
ENDBRANCH   2   7
BRANCH   3   9
ATOM      9  C   UNL     1       4.703   0.380   1.195  1.00  0.00     0.041 A 
ATOM     10  C   UNL     1       5.440   0.872   0.114  1.00  0.00     0.027 A 
ATOM     11  C   UNL     1       5.400  -0.104   2.312  1.00  0.00     0.034 A 
ATOM     12  C   UNL     1       6.836   0.905   0.150  1.00  0.00     0.011 A 
ATOM     13  C   UNL     1       6.807  -0.075   2.369  1.00  0.00    -0.016 A 
ATOM     14  C   UNL     1       7.532   0.443   1.272  1.00  0.00    -0.018 A 
ATOM     15  C   UNL     1       7.511  -0.536   3.493  1.00  0.00     0.009 A 
ATOM     16  C   UNL     1       8.933   0.487   1.325  1.00  0.00     0.009 A 
ATOM     17  C   UNL     1       8.907  -0.488   3.531  1.00  0.00     0.001 A 
ATOM     18  C   UNL     1       9.616   0.024   2.449  1.00  0.00     0.001 A 
ENDBRANCH   3   9
TORSDOF 2
