MODEL 1
REMARK VINA RESULT:    -6.246      0.000      0.000
REMARK INTER + INTRA:          -7.525
REMARK INTER:                  -7.341
REMARK INTRA:                  -0.184
REMARK UNBOUND:                -0.184
REMARK SMILES [NH-]C(=[NH2+])Nc1ccc(C(=O)O)cc1
REMARK SMILES IDX 5 1 6 2 7 3 8 4 12 5 13 6 4 7 3 8 2 9 1 13 9 15 10 16 11 17
REMARK H PARENT 3 10 3 11 4 12 1 14 11 18
ROOT
ATOM      1  C   UNL     1      27.708   4.001   4.609  1.00  0.00     0.041 A 
ATOM      2  C   UNL     1      27.074   4.260   3.385  1.00  0.00     0.027 A 
ATOM      3  C   UNL     1      26.115   5.277   3.270  1.00  0.00     0.018 A 
ATOM      4  C   UNL     1      25.783   6.056   4.387  1.00  0.00     0.060 A 
ATOM      5  C   UNL     1      26.394   5.796   5.612  1.00  0.00     0.018 A 
ATOM      6  C   UNL     1      27.353   4.786   5.715  1.00  0.00     0.027 A 
ENDROOT
BRANCH   1   7
ATOM      7  N   UNL     1      28.661   2.972   4.714  1.00  0.00    -0.327 N 
ATOM      8  N   UNL     1      29.464   0.874   4.560  1.00  0.00    -0.370 N 
ATOM      9  C   UNL     1      28.387   1.646   4.849  1.00  0.00     0.190 C 
ATOM     10  H   UNL     1      29.233  -0.096   4.386  1.00  0.00     0.159 HD
ATOM     11  H   UNL     1      30.007   1.245   3.789  1.00  0.00     0.159 HD
ATOM     12  H   UNL     1      29.573   3.256   5.038  1.00  0.00     0.170 HD
BRANCH   9  13
ATOM     13  N   UNL     1      27.266   1.124   5.199  1.00  0.00    -0.269 NA
ATOM     14  H   UNL     1      26.636   1.838   5.559  1.00  0.00     0.191 HD
ENDBRANCH   9  13
ENDBRANCH   1   7
BRANCH   4  15
ATOM     15  C   UNL     1      24.760   7.132   4.336  1.00  0.00     0.335 C 
ATOM     16  O   UNL     1      24.303   7.660   5.334  1.00  0.00    -0.246 OA
BRANCH  15  17
ATOM     17  O   UNL     1      24.412   7.489   3.081  1.00  0.00    -0.478 OA
ATOM     18  H   UNL     1      25.144   7.835   2.539  1.00  0.00     0.297 HD
ENDBRANCH  15  17
ENDBRANCH   4  15
TORSDOF 4
ENDMDL
MODEL 2
REMARK VINA RESULT:    -6.214      0.156      1.340
REMARK INTER + INTRA:          -7.488
REMARK INTER:                  -7.302
REMARK INTRA:                  -0.187
REMARK UNBOUND:                -0.184
REMARK SMILES [NH-]C(=[NH2+])Nc1ccc(C(=O)O)cc1
REMARK SMILES IDX 5 1 6 2 7 3 8 4 12 5 13 6 4 7 3 8 2 9 1 13 9 15 10 16 11 17
REMARK H PARENT 3 10 3 11 4 12 1 14 11 18
ROOT
ATOM      1  C   UNL     1      27.653   4.039   4.585  1.00  0.00     0.041 A 
ATOM      2  C   UNL     1      27.449   4.884   5.686  1.00  0.00     0.027 A 
ATOM      3  C   UNL     1      26.498   5.914   5.639  1.00  0.00     0.018 A 
ATOM      4  C   UNL     1      25.732   6.107   4.481  1.00  0.00     0.060 A 
ATOM      5  C   UNL     1      25.938   5.284   3.375  1.00  0.00     0.018 A 
ATOM      6  C   UNL     1      26.882   4.256   3.435  1.00  0.00     0.027 A 
ENDROOT
BRANCH   1   7
ATOM      7  N   UNL     1      28.616   3.016   4.643  1.00  0.00    -0.327 N 
ATOM      8  N   UNL     1      29.400   0.907   4.576  1.00  0.00    -0.370 N 
ATOM      9  C   UNL     1      28.376   1.712   4.949  1.00  0.00     0.190 C 
ATOM     10  H   UNL     1      29.152  -0.074   4.537  1.00  0.00     0.159 HD
ATOM     11  H   UNL     1      29.815   1.195   3.697  1.00  0.00     0.159 HD
ATOM     12  H   UNL     1      29.567   3.323   4.792  1.00  0.00     0.170 HD
BRANCH   9  13
ATOM     13  N   UNL     1      27.326   1.237   5.518  1.00  0.00    -0.269 NA
ATOM     14  H   UNL     1      26.500   1.414   4.950  1.00  0.00     0.191 HD
ENDBRANCH   9  13
ENDBRANCH   1   7
BRANCH   4  15
ATOM     15  C   UNL     1      24.726   7.193   4.358  1.00  0.00     0.335 C 
ATOM     16  O   UNL     1      24.258   7.775   5.320  1.00  0.00    -0.246 OA
BRANCH  15  17
ATOM     17  O   UNL     1      24.407   7.494   3.081  1.00  0.00    -0.478 OA
ATOM     18  H   UNL     1      25.171   7.662   2.500  1.00  0.00     0.297 HD
ENDBRANCH  15  17
ENDBRANCH   4  15
TORSDOF 4
ENDMDL
MODEL 3
REMARK VINA RESULT:    -6.087      4.211      5.570
REMARK INTER + INTRA:          -7.339
REMARK INTER:                  -7.206
REMARK INTRA:                  -0.132
REMARK UNBOUND:                -0.184
REMARK SMILES [NH-]C(=[NH2+])Nc1ccc(C(=O)O)cc1
REMARK SMILES IDX 5 1 6 2 7 3 8 4 12 5 13 6 4 7 3 8 2 9 1 13 9 15 10 16 11 17
REMARK H PARENT 3 10 3 11 4 12 1 14 11 18
ROOT
ATOM      1  C   UNL     1      26.607   5.490   4.894  1.00  0.00     0.041 A 
ATOM      2  C   UNL     1      27.088   4.728   5.969  1.00  0.00     0.027 A 
ATOM      3  C   UNL     1      27.677   3.472   5.758  1.00  0.00     0.018 A 
ATOM      4  C   UNL     1      27.794   2.965   4.456  1.00  0.00     0.060 A 
ATOM      5  C   UNL     1      27.303   3.706   3.382  1.00  0.00     0.018 A 
ATOM      6  C   UNL     1      26.726   4.959   3.603  1.00  0.00     0.027 A 
ENDROOT
BRANCH   1   7
ATOM      7  N   UNL     1      26.011   6.743   5.122  1.00  0.00    -0.327 N 
ATOM      8  N   UNL     1      24.424   8.183   5.811  1.00  0.00    -0.370 N 
ATOM      9  C   UNL     1      24.676   6.978   5.243  1.00  0.00     0.190 C 
ATOM     10  H   UNL     1      23.478   8.278   6.160  1.00  0.00     0.159 HD
ATOM     11  H   UNL     1      25.088   8.411   6.542  1.00  0.00     0.159 HD
ATOM     12  H   UNL     1      26.563   7.543   4.851  1.00  0.00     0.170 HD
BRANCH   9  13
ATOM     13  N   UNL     1      23.721   6.195   4.887  1.00  0.00    -0.269 NA
ATOM     14  H   UNL     1      22.991   6.717   4.405  1.00  0.00     0.191 HD
ENDBRANCH   9  13
ENDBRANCH   1   7
BRANCH   4  15
ATOM     15  C   UNL     1      28.386   1.633   4.167  1.00  0.00     0.335 C 
ATOM     16  O   UNL     1      27.713   0.635   3.980  1.00  0.00    -0.246 OA
BRANCH  15  17
ATOM     17  O   UNL     1      29.734   1.642   4.099  1.00  0.00    -0.478 OA
ATOM     18  H   UNL     1      30.172   2.186   4.780  1.00  0.00     0.297 HD
ENDBRANCH  15  17
ENDBRANCH   4  15
TORSDOF 4
ENDMDL
MODEL 4
REMARK VINA RESULT:    -6.087      4.205      5.417
REMARK INTER + INTRA:          -7.338
REMARK INTER:                  -7.208
REMARK INTRA:                  -0.130
REMARK UNBOUND:                -0.184
REMARK SMILES [NH-]C(=[NH2+])Nc1ccc(C(=O)O)cc1
REMARK SMILES IDX 5 1 6 2 7 3 8 4 12 5 13 6 4 7 3 8 2 9 1 13 9 15 10 16 11 17
REMARK H PARENT 3 10 3 11 4 12 1 14 11 18
ROOT
ATOM      1  C   UNL     1      26.646   5.522   4.789  1.00  0.00     0.041 A 
ATOM      2  C   UNL     1      26.674   4.982   3.495  1.00  0.00     0.027 A 
ATOM      3  C   UNL     1      27.221   3.713   3.254  1.00  0.00     0.018 A 
ATOM      4  C   UNL     1      27.746   2.963   4.316  1.00  0.00     0.060 A 
ATOM      5  C   UNL     1      27.739   3.498   5.604  1.00  0.00     0.018 A 
ATOM      6  C   UNL     1      27.184   4.759   5.834  1.00  0.00     0.027 A 
ENDROOT
BRANCH   1   7
ATOM      7  N   UNL     1      26.103   6.799   5.015  1.00  0.00    -0.327 N 
ATOM      8  N   UNL     1      24.606   8.309   5.753  1.00  0.00    -0.370 N 
ATOM      9  C   UNL     1      24.786   7.082   5.206  1.00  0.00     0.190 C 
ATOM     10  H   UNL     1      23.685   8.444   6.153  1.00  0.00     0.159 HD
ATOM     11  H   UNL     1      25.318   8.534   6.438  1.00  0.00     0.159 HD
ATOM     12  H   UNL     1      26.665   7.573   4.691  1.00  0.00     0.170 HD
BRANCH   9  13
ATOM     13  N   UNL     1      23.789   6.322   4.927  1.00  0.00    -0.269 NA
ATOM     14  H   UNL     1      23.893   5.920   3.996  1.00  0.00     0.191 HD
ENDBRANCH   9  13
ENDBRANCH   1   7
BRANCH   4  15
ATOM     15  C   UNL     1      28.360   1.624   4.124  1.00  0.00     0.335 C 
ATOM     16  O   UNL     1      27.704   0.608   3.981  1.00  0.00    -0.246 OA
BRANCH  15  17
ATOM     17  O   UNL     1      29.709   1.648   4.090  1.00  0.00    -0.478 OA
ATOM     18  H   UNL     1      30.143   1.211   4.846  1.00  0.00     0.297 HD
ENDBRANCH  15  17
ENDBRANCH   4  15
TORSDOF 4
ENDMDL
MODEL 5
REMARK VINA RESULT:    -6.012      1.592      2.405
REMARK INTER + INTRA:          -7.251
REMARK INTER:                  -7.084
REMARK INTRA:                  -0.167
REMARK UNBOUND:                -0.184
REMARK SMILES [NH-]C(=[NH2+])Nc1ccc(C(=O)O)cc1
REMARK SMILES IDX 5 1 6 2 7 3 8 4 12 5 13 6 4 7 3 8 2 9 1 13 9 15 10 16 11 17
REMARK H PARENT 3 10 3 11 4 12 1 14 11 18
ROOT
ATOM      1  C   UNL     1      26.881   2.014   4.910  1.00  0.00     0.041 A 
ATOM      2  C   UNL     1      26.727   2.700   6.124  1.00  0.00     0.027 A 
ATOM      3  C   UNL     1      26.006   3.902   6.187  1.00  0.00     0.018 A 
ATOM      4  C   UNL     1      25.424   4.431   5.026  1.00  0.00     0.060 A 
ATOM      5  C   UNL     1      25.586   3.766   3.812  1.00  0.00     0.018 A 
ATOM      6  C   UNL     1      26.299   2.566   3.761  1.00  0.00     0.027 A 
ENDROOT
BRANCH   1   7
ATOM      7  N   UNL     1      27.615   0.815   4.859  1.00  0.00    -0.327 N 
ATOM      8  N   UNL     1      29.428  -0.508   5.025  1.00  0.00    -0.370 N 
ATOM      9  C   UNL     1      28.958   0.712   4.667  1.00  0.00     0.190 C 
ATOM     10  H   UNL     1      30.432  -0.535   5.153  1.00  0.00     0.159 HD
ATOM     11  H   UNL     1      28.964  -0.873   5.849  1.00  0.00     0.159 HD
ATOM     12  H   UNL     1      27.083  -0.009   4.621  1.00  0.00     0.170 HD
BRANCH   9  13
ATOM     13  N   UNL     1      29.741   1.622   4.210  1.00  0.00    -0.269 NA
ATOM     14  H   UNL     1      29.212   2.452   3.948  1.00  0.00     0.191 HD
ENDBRANCH   9  13
ENDBRANCH   1   7
BRANCH   4  15
ATOM     15  C   UNL     1      24.669   5.710   5.021  1.00  0.00     0.335 C 
ATOM     16  O   UNL     1      25.210   6.800   5.069  1.00  0.00    -0.246 OA
BRANCH  15  17
ATOM     17  O   UNL     1      23.331   5.549   4.926  1.00  0.00    -0.478 OA
ATOM     18  H   UNL     1      22.991   4.729   5.328  1.00  0.00     0.297 HD
ENDBRANCH  15  17
ENDBRANCH   4  15
TORSDOF 4
ENDMDL
MODEL 6
REMARK VINA RESULT:    -5.999      1.562      1.971
REMARK INTER + INTRA:          -7.235
REMARK INTER:                  -7.076
REMARK INTRA:                  -0.159
REMARK UNBOUND:                -0.184
REMARK SMILES [NH-]C(=[NH2+])Nc1ccc(C(=O)O)cc1
REMARK SMILES IDX 5 1 6 2 7 3 8 4 12 5 13 6 4 7 3 8 2 9 1 13 9 15 10 16 11 17
REMARK H PARENT 3 10 3 11 4 12 1 14 11 18
ROOT
ATOM      1  C   UNL     1      26.914   2.073   4.915  1.00  0.00     0.041 A 
ATOM      2  C   UNL     1      26.375   2.603   3.734  1.00  0.00     0.027 A 
ATOM      3  C   UNL     1      25.644   3.800   3.748  1.00  0.00     0.018 A 
ATOM      4  C   UNL     1      25.446   4.485   4.955  1.00  0.00     0.060 A 
ATOM      5  C   UNL     1      25.962   3.958   6.137  1.00  0.00     0.018 A 
ATOM      6  C   UNL     1      26.696   2.770   6.111  1.00  0.00     0.027 A 
ENDROOT
BRANCH   1   7
ATOM      7  N   UNL     1      27.638   0.867   4.888  1.00  0.00    -0.327 N 
ATOM      8  N   UNL     1      29.438  -0.470   5.089  1.00  0.00    -0.370 N 
ATOM      9  C   UNL     1      28.981   0.749   4.709  1.00  0.00     0.190 C 
ATOM     10  H   UNL     1      30.440  -0.503   5.226  1.00  0.00     0.159 HD
ATOM     11  H   UNL     1      28.963  -0.819   5.914  1.00  0.00     0.159 HD
ATOM     12  H   UNL     1      27.101   0.044   4.657  1.00  0.00     0.170 HD
BRANCH   9  13
ATOM     13  N   UNL     1      29.777   1.645   4.246  1.00  0.00    -0.269 NA
ATOM     14  H   UNL     1      30.120   2.242   4.997  1.00  0.00     0.191 HD
ENDBRANCH   9  13
ENDBRANCH   1   7
BRANCH   4  15
ATOM     15  C   UNL     1      24.661   5.744   5.041  1.00  0.00     0.335 C 
ATOM     16  O   UNL     1      25.178   6.843   5.130  1.00  0.00    -0.246 OA
BRANCH  15  17
ATOM     17  O   UNL     1      23.326   5.554   4.977  1.00  0.00    -0.478 OA
ATOM     18  H   UNL     1      22.928   5.755   4.110  1.00  0.00     0.297 HD
ENDBRANCH  15  17
ENDBRANCH   4  15
TORSDOF 4
ENDMDL
MODEL 7
REMARK VINA RESULT:    -5.960      1.564      2.108
REMARK INTER + INTRA:          -7.189
REMARK INTER:                  -7.029
REMARK INTRA:                  -0.160
REMARK UNBOUND:                -0.184
REMARK SMILES [NH-]C(=[NH2+])Nc1ccc(C(=O)O)cc1
REMARK SMILES IDX 5 1 6 2 7 3 8 4 12 5 13 6 4 7 3 8 2 9 1 13 9 15 10 16 11 17
REMARK H PARENT 3 10 3 11 4 12 1 14 11 18
ROOT
ATOM      1  C   UNL     1      25.618   2.907   4.380  1.00  0.00     0.041 A 
ATOM      2  C   UNL     1      24.432   3.294   5.022  1.00  0.00     0.027 A 
ATOM      3  C   UNL     1      24.014   4.633   5.018  1.00  0.00     0.018 A 
ATOM      4  C   UNL     1      24.783   5.605   4.362  1.00  0.00     0.060 A 
ATOM      5  C   UNL     1      25.972   5.233   3.736  1.00  0.00     0.018 A 
ATOM      6  C   UNL     1      26.375   3.896   3.739  1.00  0.00     0.027 A 
ENDROOT
BRANCH   1   7
ATOM      7  N   UNL     1      26.030   1.562   4.401  1.00  0.00    -0.327 N 
ATOM      8  N   UNL     1      26.772  -0.360   5.307  1.00  0.00    -0.370 N 
ATOM      9  C   UNL     1      26.845   0.994   5.331  1.00  0.00     0.190 C 
ATOM     10  H   UNL     1      27.142  -0.801   6.141  1.00  0.00     0.159 HD
ATOM     11  H   UNL     1      25.832  -0.692   5.128  1.00  0.00     0.159 HD
ATOM     12  H   UNL     1      25.996   1.084   3.512  1.00  0.00     0.170 HD
BRANCH   9  13
ATOM     13  N   UNL     1      27.609   1.607   6.161  1.00  0.00    -0.269 NA
ATOM     14  H   UNL     1      27.785   1.029   6.981  1.00  0.00     0.191 HD
ENDBRANCH   9  13
ENDBRANCH   1   7
BRANCH   4  15
ATOM     15  C   UNL     1      24.407   7.042   4.341  1.00  0.00     0.335 C 
ATOM     16  O   UNL     1      24.167   7.680   5.350  1.00  0.00    -0.246 OA
BRANCH  15  17
ATOM     17  O   UNL     1      24.391   7.579   3.102  1.00  0.00    -0.478 OA
ATOM     18  H   UNL     1      24.846   7.049   2.423  1.00  0.00     0.297 HD
ENDBRANCH  15  17
ENDBRANCH   4  15
TORSDOF 4
ENDMDL
MODEL 8
REMARK VINA RESULT:    -5.849      1.823      2.379
REMARK INTER + INTRA:          -7.059
REMARK INTER:                  -6.888
REMARK INTRA:                  -0.171
REMARK UNBOUND:                -0.184
REMARK SMILES [NH-]C(=[NH2+])Nc1ccc(C(=O)O)cc1
REMARK SMILES IDX 5 1 6 2 7 3 8 4 12 5 13 6 4 7 3 8 2 9 1 13 9 15 10 16 11 17
REMARK H PARENT 3 10 3 11 4 12 1 14 11 18
ROOT
ATOM      1  C   UNL     1      28.120   1.765   3.966  1.00  0.00     0.041 A 
ATOM      2  C   UNL     1      26.977   1.737   3.153  1.00  0.00     0.027 A 
ATOM      3  C   UNL     1      26.014   2.754   3.226  1.00  0.00     0.018 A 
ATOM      4  C   UNL     1      26.189   3.821   4.119  1.00  0.00     0.060 A 
ATOM      5  C   UNL     1      27.312   3.849   4.944  1.00  0.00     0.018 A 
ATOM      6  C   UNL     1      28.270   2.836   4.857  1.00  0.00     0.027 A 
ENDROOT
BRANCH   1   7
ATOM      7  N   UNL     1      29.073   0.733   3.889  1.00  0.00    -0.327 N 
ATOM      8  N   UNL     1      29.864  -1.367   4.056  1.00  0.00    -0.370 N 
ATOM      9  C   UNL     1      29.043  -0.432   4.591  1.00  0.00     0.190 C 
ATOM     10  H   UNL     1      29.671  -2.308   4.375  1.00  0.00     0.159 HD
ATOM     11  H   UNL     1      29.871  -1.340   3.043  1.00  0.00     0.159 HD
ATOM     12  H   UNL     1      29.985   1.009   3.555  1.00  0.00     0.170 HD
BRANCH   9  13
ATOM     13  N   UNL     1      28.341  -0.680   5.639  1.00  0.00    -0.269 NA
ATOM     14  H   UNL     1      28.681  -0.142   6.434  1.00  0.00     0.191 HD
ENDBRANCH   9  13
ENDBRANCH   1   7
BRANCH   4  15
ATOM     15  C   UNL     1      25.196   4.916   4.261  1.00  0.00     0.335 C 
ATOM     16  O   UNL     1      24.036   4.722   4.578  1.00  0.00    -0.246 OA
BRANCH  15  17
ATOM     17  O   UNL     1      25.709   6.145   4.040  1.00  0.00    -0.478 OA
ATOM     18  H   UNL     1      25.048   6.831   3.837  1.00  0.00     0.297 HD
ENDBRANCH  15  17
ENDBRANCH   4  15
TORSDOF 4
ENDMDL
MODEL 9
REMARK VINA RESULT:    -5.828      4.463      5.684
REMARK INTER + INTRA:          -7.034
REMARK INTER:                  -6.857
REMARK INTRA:                  -0.176
REMARK UNBOUND:                -0.184
REMARK SMILES [NH-]C(=[NH2+])Nc1ccc(C(=O)O)cc1
REMARK SMILES IDX 5 1 6 2 7 3 8 4 12 5 13 6 4 7 3 8 2 9 1 13 9 15 10 16 11 17
REMARK H PARENT 3 10 3 11 4 12 1 14 11 18
ROOT
ATOM      1  C   UNL     1      26.265   3.862   4.792  1.00  0.00     0.041 A 
ATOM      2  C   UNL     1      26.659   3.099   3.683  1.00  0.00     0.027 A 
ATOM      3  C   UNL     1      27.434   1.941   3.843  1.00  0.00     0.018 A 
ATOM      4  C   UNL     1      27.823   1.530   5.125  1.00  0.00     0.060 A 
ATOM      5  C   UNL     1      27.452   2.291   6.233  1.00  0.00     0.018 A 
ATOM      6  C   UNL     1      26.673   3.438   6.064  1.00  0.00     0.027 A 
ENDROOT
BRANCH   1   7
ATOM      7  N   UNL     1      25.496   5.027   4.617  1.00  0.00    -0.327 N 
ATOM      8  N   UNL     1      23.774   6.437   4.951  1.00  0.00    -0.370 N 
ATOM      9  C   UNL     1      24.161   5.142   4.855  1.00  0.00     0.190 C 
ATOM     10  H   UNL     1      22.868   6.559   5.387  1.00  0.00     0.159 HD
ATOM     11  H   UNL     1      24.464   7.012   5.421  1.00  0.00     0.159 HD
ATOM     12  H   UNL     1      25.876   5.706   3.974  1.00  0.00     0.170 HD
BRANCH   9  13
ATOM     13  N   UNL     1      23.318   4.181   4.987  1.00  0.00    -0.269 NA
ATOM     14  H   UNL     1      23.686   3.323   4.579  1.00  0.00     0.191 HD
ENDBRANCH   9  13
ENDBRANCH   1   7
BRANCH   4  15
ATOM     15  C   UNL     1      28.663   0.327   5.360  1.00  0.00     0.335 C 
ATOM     16  O   UNL     1      28.669  -0.283   6.414  1.00  0.00    -0.246 OA
BRANCH  15  17
ATOM     17  O   UNL     1      29.391  -0.042   4.285  1.00  0.00    -0.478 OA
ATOM     18  H   UNL     1      29.632   0.688   3.687  1.00  0.00     0.297 HD
ENDBRANCH  15  17
ENDBRANCH   4  15
TORSDOF 4
ENDMDL
MODEL 10
REMARK VINA RESULT:    -5.783      4.596      6.308
REMARK INTER + INTRA:          -6.982
REMARK INTER:                  -6.803
REMARK INTRA:                  -0.179
REMARK UNBOUND:                -0.184
REMARK SMILES [NH-]C(=[NH2+])Nc1ccc(C(=O)O)cc1
REMARK SMILES IDX 5 1 6 2 7 3 8 4 12 5 13 6 4 7 3 8 2 9 1 13 9 15 10 16 11 17
REMARK H PARENT 3 10 3 11 4 12 1 14 11 18
ROOT
ATOM      1  C   UNL     1      26.798   2.603   4.667  1.00  0.00     0.041 A 
ATOM      2  C   UNL     1      27.527   1.926   5.656  1.00  0.00     0.027 A 
ATOM      3  C   UNL     1      28.104   0.674   5.396  1.00  0.00     0.018 A 
ATOM      4  C   UNL     1      27.960   0.085   4.132  1.00  0.00     0.060 A 
ATOM      5  C   UNL     1      27.223   0.742   3.148  1.00  0.00     0.018 A 
ATOM      6  C   UNL     1      26.659   1.992   3.414  1.00  0.00     0.027 A 
ENDROOT
BRANCH   1   7
ATOM      7  N   UNL     1      26.216   3.854   4.944  1.00  0.00    -0.327 N 
ATOM      8  N   UNL     1      25.788   6.045   4.655  1.00  0.00    -0.370 N 
ATOM      9  C   UNL     1      26.721   5.064   4.581  1.00  0.00     0.190 C 
ATOM     10  H   UNL     1      26.039   6.884   4.147  1.00  0.00     0.159 HD
ATOM     11  H   UNL     1      24.870   5.726   4.367  1.00  0.00     0.159 HD
ATOM     12  H   UNL     1      25.581   3.873   5.728  1.00  0.00     0.170 HD
BRANCH   9  13
ATOM     13  N   UNL     1      27.922   5.313   4.200  1.00  0.00    -0.269 NA
ATOM     14  H   UNL     1      28.595   4.905   4.846  1.00  0.00     0.191 HD
ENDBRANCH   9  13
ENDBRANCH   1   7
BRANCH   4  15
ATOM     15  C   UNL     1      28.527  -1.247   3.800  1.00  0.00     0.335 C 
ATOM     16  O   UNL     1      27.913  -2.092   3.173  1.00  0.00    -0.246 OA
BRANCH  15  17
ATOM     17  O   UNL     1      29.795  -1.419   4.232  1.00  0.00    -0.478 OA
ATOM     18  H   UNL     1      29.933  -2.213   4.780  1.00  0.00     0.297 HD
ENDBRANCH  15  17
ENDBRANCH   4  15
TORSDOF 4
ENDMDL
