REMARK SMILES [NH-]C(=[NH2+])Nc1ccc(C(=O)O)cc1
REMARK SMILES IDX 5 1 6 2 7 3 8 4 12 5 13 6 4 7 3 8 2 9 1 13 9 15 10 16 11 17
REMARK H PARENT 3 10 3 11 4 12 1 14 11 18
ROOT
ATOM      1  C   UNL     1       4.647   0.794  -0.901  1.00  0.00     0.041 A 
ATOM      2  C   UNL     1       5.337  -0.426  -0.840  1.00  0.00     0.027 A 
ATOM      3  C   UNL     1       6.735  -0.470  -0.943  1.00  0.00     0.018 A 
ATOM      4  C   UNL     1       7.463   0.717  -1.105  1.00  0.00     0.060 A 
ATOM      5  C   UNL     1       6.786   1.933  -1.185  1.00  0.00     0.018 A 
ATOM      6  C   UNL     1       5.394   1.967  -1.073  1.00  0.00     0.027 A 
ENDROOT
BRANCH   1   7
ATOM      7  N   UNL     1       3.244   0.823  -0.806  1.00  0.00    -0.327 N 
ATOM      8  N   UNL     1       1.202   1.754  -0.632  1.00  0.00    -0.370 N 
ATOM      9  C   UNL     1       2.504   1.827  -0.262  1.00  0.00     0.190 C 
ATOM     10  H   UNL     1       0.687   2.612  -0.477  1.00  0.00     0.159 HD
ATOM     11  H   UNL     1       1.091   1.452  -1.593  1.00  0.00     0.159 HD
ATOM     12  H   UNL     1       2.788  -0.077  -0.836  1.00  0.00     0.170 HD
BRANCH   9  13
ATOM     13  N   UNL     1       2.927   2.762   0.511  1.00  0.00    -0.269 NA
ATOM     14  H   UNL     1       2.156   3.359   0.806  1.00  0.00     0.191 HD
ENDBRANCH   9  13
ENDBRANCH   1   7
BRANCH   4  15
ATOM     15  C   UNL     1       8.942   0.736  -1.244  1.00  0.00     0.335 C 
ATOM     16  O   UNL     1       9.533   1.547  -1.934  1.00  0.00    -0.246 OA
BRANCH  15  17
ATOM     17  O   UNL     1       9.567  -0.208  -0.508  1.00  0.00    -0.478 OA
ATOM     18  H   UNL     1       9.000  -0.654   0.147  1.00  0.00     0.297 HD
ENDBRANCH  15  17
ENDBRANCH   4  15
TORSDOF 4
