REMARK SMILES C[C@]12CCC(=O)C[C@@H]1CC[C@@H]1[C@@H]2CC[C@]2(C)[C@@H](O)CC[C@@H]12
REMARK SMILES IDX 16 1 15 2 14 3 13 4 12 5 11 6 10 7 9 8 8 9 7 10 5 11 6 12
REMARK SMILES IDX 4 13 3 14 2 15 1 16 21 17 20 18 19 19 17 20 18 21
REMARK H PARENT 18 22
ROOT
ATOM      1  C   UNL     1       3.284  -0.682  -1.512  1.00  0.00     0.014 C 
ATOM      2  C   UNL     1       2.575  -0.300  -0.167  1.00  0.00    -0.003 C 
ATOM      3  C   UNL     1       1.676  -1.494   0.149  1.00  0.00     0.010 C 
ATOM      4  C   UNL     1       0.486  -1.084   0.970  1.00  0.00     0.005 C 
ATOM      5  C   UNL     1      -0.297   0.105   0.345  1.00  0.00    -0.001 C 
ATOM      6  C   UNL     1       0.432   0.828  -0.871  1.00  0.00    -0.004 C 
ATOM      7  C   UNL     1      -0.344   2.075  -1.312  1.00  0.00     0.004 C 
ATOM      8  C   UNL     1      -1.891   1.965  -1.260  1.00  0.00     0.005 C 
ATOM      9  C   UNL     1      -2.526   1.043  -0.198  1.00  0.00     0.002 C 
ATOM     10  C   UNL     1      -3.995   0.722  -0.524  1.00  0.00     0.079 C 
ATOM     11  C   UNL     1      -4.612  -0.186   0.527  1.00  0.00     0.133 C 
ATOM     12  O   UNL     1      -5.770  -0.591   0.431  1.00  0.00    -0.300 OA
ATOM     13  C   UNL     1      -3.780  -0.502   1.741  1.00  0.00     0.076 C 
ATOM     14  C   UNL     1      -2.377  -0.953   1.354  1.00  0.00     0.015 C 
ATOM     15  C   UNL     1      -1.765  -0.271   0.074  1.00  0.00    -0.026 C 
ATOM     16  C   UNL     1      -1.841  -1.255  -1.121  1.00  0.00     0.012 C 
ATOM     17  C   UNL     1       1.850   1.075  -0.321  1.00  0.00     0.001 C 
ATOM     18  C   UNL     1       3.076   1.983  -0.572  1.00  0.00     0.007 C 
ATOM     19  C   UNL     1       3.994   1.525   0.619  1.00  0.00     0.032 C 
ATOM     20  C   UNL     1       3.451   0.164   1.058  1.00  0.00     0.120 C 
ENDROOT
BRANCH  20  21
ATOM     21  O   UNL     1       4.384  -0.763   1.526  1.00  0.00    -0.393 OA
ATOM     22  H   UNL     1       4.340  -0.748   2.506  1.00  0.00     0.210 HD
ENDBRANCH  20  21
TORSDOF 1
