MODEL 1
REMARK VINA RESULT:    -9.886      0.000      0.000
REMARK INTER + INTRA:         -10.175
REMARK INTER:                 -10.175
REMARK INTRA:                   0.000
REMARK UNBOUND:                 0.000
REMARK SMILES C[C@]12CCC(=O)C[C@@H]1CC[C@@H]1[C@@H]2CC[C@]2(C)[C@@H](O)CC[C@@H]12
REMARK SMILES IDX 16 1 15 2 14 3 13 4 12 5 11 6 10 7 9 8 8 9 7 10 5 11 6 12
REMARK SMILES IDX 4 13 3 14 2 15 1 16 21 17 20 18 19 19 17 20 18 21
REMARK H PARENT 18 22
ROOT
ATOM      1  C   UNL     1      28.264  -0.434   5.968  1.00  0.00     0.014 C 
ATOM      2  C   UNL     1      27.980   0.320   4.622  1.00  0.00    -0.003 C 
ATOM      3  C   UNL     1      28.536   1.726   4.842  1.00  0.00     0.010 C 
ATOM      4  C   UNL     1      27.817   2.739   3.996  1.00  0.00     0.005 C 
ATOM      5  C   UNL     1      26.272   2.674   4.161  1.00  0.00    -0.001 C 
ATOM      6  C   UNL     1      25.731   1.410   4.962  1.00  0.00    -0.004 C 
ATOM      7  C   UNL     1      24.199   1.358   4.934  1.00  0.00     0.004 C 
ATOM      8  C   UNL     1      23.472   2.727   5.017  1.00  0.00     0.005 C 
ATOM      9  C   UNL     1      24.175   3.968   4.430  1.00  0.00     0.002 C 
ATOM     10  C   UNL     1      23.545   5.277   4.938  1.00  0.00     0.079 C 
ATOM     11  C   UNL     1      24.244   6.493   4.354  1.00  0.00     0.133 C 
ATOM     12  O   UNL     1      23.915   7.638   4.665  1.00  0.00    -0.300 OA
ATOM     13  C   UNL     1      25.299   6.249   3.309  1.00  0.00     0.076 C 
ATOM     14  C   UNL     1      26.293   5.185   3.757  1.00  0.00     0.015 C 
ATOM     15  C   UNL     1      25.703   4.022   4.640  1.00  0.00    -0.026 C 
ATOM     16  C   UNL     1      26.086   4.255   6.123  1.00  0.00     0.012 C 
ATOM     17  C   UNL     1      26.459   0.236   4.278  1.00  0.00     0.001 C 
ATOM     18  C   UNL     1      26.323  -1.293   4.090  1.00  0.00     0.007 C 
ATOM     19  C   UNL     1      27.530  -1.548   3.115  1.00  0.00     0.032 C 
ATOM     20  C   UNL     1      28.445  -0.331   3.265  1.00  0.00     0.120 C 
ENDROOT
BRANCH  20  21
ATOM     21  O   UNL     1      29.817  -0.558   3.136  1.00  0.00    -0.393 OA
ATOM     22  H   UNL     1      29.927  -1.453   2.749  1.00  0.00     0.210 HD
ENDBRANCH  20  21
TORSDOF 1
ENDMDL
MODEL 2
REMARK VINA RESULT:    -9.273      1.489      2.684
REMARK INTER + INTRA:          -9.544
REMARK INTER:                  -9.544
REMARK INTRA:                   0.000
REMARK UNBOUND:                 0.000
REMARK SMILES C[C@]12CCC(=O)C[C@@H]1CC[C@@H]1[C@@H]2CC[C@]2(C)[C@@H](O)CC[C@@H]12
REMARK SMILES IDX 16 1 15 2 14 3 13 4 12 5 11 6 10 7 9 8 8 9 7 10 5 11 6 12
REMARK SMILES IDX 4 13 3 14 2 15 1 16 21 17 20 18 19 19 17 20 18 21
REMARK H PARENT 18 22
ROOT
ATOM      1  C   UNL     1      28.694  -0.112   3.135  1.00  0.00     0.014 C 
ATOM      2  C   UNL     1      27.330   0.231   3.826  1.00  0.00    -0.003 C 
ATOM      3  C   UNL     1      26.589   1.098   2.810  1.00  0.00     0.010 C 
ATOM      4  C   UNL     1      25.623   2.032   3.484  1.00  0.00     0.005 C 
ATOM      5  C   UNL     1      26.283   2.869   4.615  1.00  0.00    -0.001 C 
ATOM      6  C   UNL     1      27.751   2.409   5.026  1.00  0.00    -0.004 C 
ATOM      7  C   UNL     1      28.249   3.192   6.247  1.00  0.00     0.004 C 
ATOM      8  C   UNL     1      27.833   4.686   6.311  1.00  0.00     0.005 C 
ATOM      9  C   UNL     1      26.493   5.103   5.668  1.00  0.00     0.002 C 
ATOM     10  C   UNL     1      26.413   6.624   5.448  1.00  0.00     0.079 C 
ATOM     11  C   UNL     1      25.091   7.025   4.815  1.00  0.00     0.133 C 
ATOM     12  O   UNL     1      24.844   8.195   4.523  1.00  0.00    -0.300 OA
ATOM     13  C   UNL     1      24.055   5.948   4.639  1.00  0.00     0.076 C 
ATOM     14  C   UNL     1      24.646   4.707   3.981  1.00  0.00     0.015 C 
ATOM     15  C   UNL     1      26.140   4.379   4.352  1.00  0.00    -0.026 C 
ATOM     16  C   UNL     1      27.066   4.796   3.182  1.00  0.00     0.012 C 
ATOM     17  C   UNL     1      27.591   0.889   5.219  1.00  0.00     0.001 C 
ATOM     18  C   UNL     1      28.285  -0.294   5.933  1.00  0.00     0.007 C 
ATOM     19  C   UNL     1      27.261  -1.440   5.605  1.00  0.00     0.032 C 
ATOM     20  C   UNL     1      26.449  -0.938   4.410  1.00  0.00     0.120 C 
ENDROOT
BRANCH  20  21
ATOM     21  O   UNL     1      26.024  -1.899   3.491  1.00  0.00    -0.393 OA
ATOM     22  H   UNL     1      25.064  -2.038   3.640  1.00  0.00     0.210 HD
ENDBRANCH  20  21
TORSDOF 1
ENDMDL
MODEL 3
REMARK VINA RESULT:    -9.219      1.052      1.109
REMARK INTER + INTRA:          -9.488
REMARK INTER:                  -9.488
REMARK INTRA:                   0.000
REMARK UNBOUND:                 0.000
REMARK SMILES C[C@]12CCC(=O)C[C@@H]1CC[C@@H]1[C@@H]2CC[C@]2(C)[C@@H](O)CC[C@@H]12
REMARK SMILES IDX 16 1 15 2 14 3 13 4 12 5 11 6 10 7 9 8 8 9 7 10 5 11 6 12
REMARK SMILES IDX 4 13 3 14 2 15 1 16 21 17 20 18 19 19 17 20 18 21
REMARK H PARENT 18 22
ROOT
ATOM      1  C   UNL     1      27.051  -1.119   6.199  1.00  0.00     0.014 C 
ATOM      2  C   UNL     1      27.588  -0.022   5.216  1.00  0.00    -0.003 C 
ATOM      3  C   UNL     1      28.051   1.117   6.123  1.00  0.00     0.010 C 
ATOM      4  C   UNL     1      27.976   2.443   5.421  1.00  0.00     0.005 C 
ATOM      5  C   UNL     1      26.582   2.712   4.786  1.00  0.00    -0.001 C 
ATOM      6  C   UNL     1      25.600   1.460   4.761  1.00  0.00    -0.004 C 
ATOM      7  C   UNL     1      24.320   1.784   3.981  1.00  0.00     0.004 C 
ATOM      8  C   UNL     1      23.771   3.226   4.146  1.00  0.00     0.005 C 
ATOM      9  C   UNL     1      24.775   4.367   4.415  1.00  0.00     0.002 C 
ATOM     10  C   UNL     1      24.076   5.628   4.951  1.00  0.00     0.079 C 
ATOM     11  C   UNL     1      25.072   6.746   5.213  1.00  0.00     0.133 C 
ATOM     12  O   UNL     1      24.719   7.828   5.681  1.00  0.00    -0.300 OA
ATOM     13  C   UNL     1      26.499   6.512   4.794  1.00  0.00     0.076 C 
ATOM     14  C   UNL     1      27.012   5.167   5.291  1.00  0.00     0.015 C 
ATOM     15  C   UNL     1      25.953   4.003   5.341  1.00  0.00    -0.026 C 
ATOM     16  C   UNL     1      25.503   3.778   6.807  1.00  0.00     0.012 C 
ATOM     17  C   UNL     1      26.484   0.344   4.173  1.00  0.00     0.001 C 
ATOM     18  C   UNL     1      26.350  -1.018   3.455  1.00  0.00     0.007 C 
ATOM     19  C   UNL     1      27.866  -1.315   3.163  1.00  0.00     0.032 C 
ATOM     20  C   UNL     1      28.653  -0.424   4.125  1.00  0.00     0.120 C 
ENDROOT
BRANCH  20  21
ATOM     21  O   UNL     1      29.859  -0.933   4.609  1.00  0.00    -0.393 OA
ATOM     22  H   UNL     1      30.519  -0.847   3.889  1.00  0.00     0.210 HD
ENDBRANCH  20  21
TORSDOF 1
ENDMDL
MODEL 4
REMARK VINA RESULT:    -8.106      1.455      6.478
REMARK INTER + INTRA:          -8.343
REMARK INTER:                  -8.343
REMARK INTRA:                   0.000
REMARK UNBOUND:                 0.000
REMARK SMILES C[C@]12CCC(=O)C[C@@H]1CC[C@@H]1[C@@H]2CC[C@]2(C)[C@@H](O)CC[C@@H]12
REMARK SMILES IDX 16 1 15 2 14 3 13 4 12 5 11 6 10 7 9 8 8 9 7 10 5 11 6 12
REMARK SMILES IDX 4 13 3 14 2 15 1 16 21 17 20 18 19 19 17 20 18 21
REMARK H PARENT 18 22
ROOT
ATOM      1  C   UNL     1      24.257   3.827   6.944  1.00  0.00     0.014 C 
ATOM      2  C   UNL     1      24.438   3.374   5.454  1.00  0.00    -0.003 C 
ATOM      3  C   UNL     1      24.149   1.874   5.468  1.00  0.00     0.010 C 
ATOM      4  C   UNL     1      24.874   1.164   4.359  1.00  0.00     0.005 C 
ATOM      5  C   UNL     1      26.396   1.479   4.335  1.00  0.00    -0.001 C 
ATOM      6  C   UNL     1      26.854   2.669   5.288  1.00  0.00    -0.004 C 
ATOM      7  C   UNL     1      28.336   3.002   5.076  1.00  0.00     0.004 C 
ATOM      8  C   UNL     1      29.270   1.793   4.802  1.00  0.00     0.005 C 
ATOM      9  C   UNL     1      28.685   0.561   4.081  1.00  0.00     0.002 C 
ATOM     10  C   UNL     1      29.582  -0.677   4.244  1.00  0.00     0.079 C 
ATOM     11  C   UNL     1      28.998  -1.886   3.531  1.00  0.00     0.133 C 
ATOM     12  O   UNL     1      29.546  -2.987   3.572  1.00  0.00    -0.300 OA
ATOM     13  C   UNL     1      27.766  -1.665   2.695  1.00  0.00     0.076 C 
ATOM     14  C   UNL     1      26.702  -0.889   3.463  1.00  0.00     0.015 C 
ATOM     15  C   UNL     1      27.237   0.197   4.470  1.00  0.00    -0.026 C 
ATOM     16  C   UNL     1      27.134  -0.347   5.917  1.00  0.00     0.012 C 
ATOM     17  C   UNL     1      25.854   3.788   4.941  1.00  0.00     0.001 C 
ATOM     18  C   UNL     1      25.719   5.326   5.034  1.00  0.00     0.007 C 
ATOM     19  C   UNL     1      24.348   5.518   4.289  1.00  0.00     0.032 C 
ATOM     20  C   UNL     1      23.669   4.147   4.317  1.00  0.00     0.120 C 
ENDROOT
BRANCH  20  21
ATOM     21  O   UNL     1      22.276   4.139   4.410  1.00  0.00    -0.393 OA
ATOM     22  H   UNL     1      22.022   4.868   5.015  1.00  0.00     0.210 HD
ENDBRANCH  20  21
TORSDOF 1
ENDMDL
MODEL 5
REMARK VINA RESULT:    -7.758      1.503      6.083
REMARK INTER + INTRA:          -7.985
REMARK INTER:                  -7.985
REMARK INTRA:                   0.000
REMARK UNBOUND:                 0.000
REMARK SMILES C[C@]12CCC(=O)C[C@@H]1CC[C@@H]1[C@@H]2CC[C@]2(C)[C@@H](O)CC[C@@H]12
REMARK SMILES IDX 16 1 15 2 14 3 13 4 12 5 11 6 10 7 9 8 8 9 7 10 5 11 6 12
REMARK SMILES IDX 4 13 3 14 2 15 1 16 21 17 20 18 19 19 17 20 18 21
REMARK H PARENT 18 22
ROOT
ATOM      1  C   UNL     1      25.877   6.196   2.734  1.00  0.00     0.014 C 
ATOM      2  C   UNL     1      26.279   5.524   4.092  1.00  0.00    -0.003 C 
ATOM      3  C   UNL     1      27.539   4.722   3.769  1.00  0.00     0.010 C 
ATOM      4  C   UNL     1      27.694   3.545   4.690  1.00  0.00     0.005 C 
ATOM      5  C   UNL     1      26.419   2.657   4.751  1.00  0.00    -0.001 C 
ATOM      6  C   UNL     1      25.128   3.280   4.060  1.00  0.00    -0.004 C 
ATOM      7  C   UNL     1      23.896   2.402   4.310  1.00  0.00     0.004 C 
ATOM      8  C   UNL     1      24.142   0.870   4.307  1.00  0.00     0.005 C 
ATOM      9  C   UNL     1      25.519   0.347   4.764  1.00  0.00     0.002 C 
ATOM     10  C   UNL     1      25.752  -1.110   4.328  1.00  0.00     0.079 C 
ATOM     11  C   UNL     1      27.110  -1.616   4.782  1.00  0.00     0.133 C 
ATOM     12  O   UNL     1      27.505  -2.748   4.501  1.00  0.00    -0.300 OA
ATOM     13  C   UNL     1      27.924  -0.712   5.669  1.00  0.00     0.076 C 
ATOM     14  C   UNL     1      28.005   0.700   5.101  1.00  0.00     0.015 C 
ATOM     15  C   UNL     1      26.726   1.207   4.335  1.00  0.00    -0.026 C 
ATOM     16  C   UNL     1      26.982   1.144   2.807  1.00  0.00     0.012 C 
ATOM     17  C   UNL     1      25.076   4.701   4.653  1.00  0.00     0.001 C 
ATOM     18  C   UNL     1      24.069   5.850   4.887  1.00  0.00     0.007 C 
ATOM     19  C   UNL     1      24.986   6.850   5.682  1.00  0.00     0.032 C 
ATOM     20  C   UNL     1      26.422   6.420   5.380  1.00  0.00     0.120 C 
ENDROOT
BRANCH  20  21
ATOM     21  O   UNL     1      27.380   7.434   5.314  1.00  0.00    -0.393 OA
ATOM     22  H   UNL     1      27.478   7.798   6.219  1.00  0.00     0.210 HD
ENDBRANCH  20  21
TORSDOF 1
ENDMDL
MODEL 6
REMARK VINA RESULT:    -7.753      1.360      6.360
REMARK INTER + INTRA:          -7.979
REMARK INTER:                  -7.979
REMARK INTRA:                   0.000
REMARK UNBOUND:                 0.000
REMARK SMILES C[C@]12CCC(=O)C[C@@H]1CC[C@@H]1[C@@H]2CC[C@]2(C)[C@@H](O)CC[C@@H]12
REMARK SMILES IDX 16 1 15 2 14 3 13 4 12 5 11 6 10 7 9 8 8 9 7 10 5 11 6 12
REMARK SMILES IDX 4 13 3 14 2 15 1 16 21 17 20 18 19 19 17 20 18 21
REMARK H PARENT 18 22
ROOT
ATOM      1  C   UNL     1      24.010   4.961   5.846  1.00  0.00     0.014 C 
ATOM      2  C   UNL     1      25.084   4.765   4.721  1.00  0.00    -0.003 C 
ATOM      3  C   UNL     1      24.563   3.596   3.887  1.00  0.00     0.010 C 
ATOM      4  C   UNL     1      25.685   2.855   3.217  1.00  0.00     0.005 C 
ATOM      5  C   UNL     1      26.804   2.429   4.210  1.00  0.00    -0.001 C 
ATOM      6  C   UNL     1      26.695   3.069   5.663  1.00  0.00    -0.004 C 
ATOM      7  C   UNL     1      27.922   2.713   6.511  1.00  0.00     0.004 C 
ATOM      8  C   UNL     1      28.496   1.285   6.308  1.00  0.00     0.005 C 
ATOM      9  C   UNL     1      28.345   0.624   4.922  1.00  0.00     0.002 C 
ATOM     10  C   UNL     1      28.581  -0.895   4.984  1.00  0.00     0.079 C 
ATOM     11  C   UNL     1      28.431  -1.537   3.615  1.00  0.00     0.133 C 
ATOM     12  O   UNL     1      28.543  -2.752   3.456  1.00  0.00    -0.300 OA
ATOM     13  C   UNL     1      28.226  -0.619   2.440  1.00  0.00     0.076 C 
ATOM     14  C   UNL     1      27.127   0.400   2.713  1.00  0.00     0.015 C 
ATOM     15  C   UNL     1      27.011   0.904   4.200  1.00  0.00    -0.026 C 
ATOM     16  C   UNL     1      25.810   0.208   4.889  1.00  0.00     0.012 C 
ATOM     17  C   UNL     1      26.494   4.567   5.363  1.00  0.00     0.001 C 
ATOM     18  C   UNL     1      26.660   5.944   6.046  1.00  0.00     0.007 C 
ATOM     19  C   UNL     1      26.292   6.884   4.841  1.00  0.00     0.032 C 
ATOM     20  C   UNL     1      25.522   6.006   3.853  1.00  0.00     0.120 C 
ENDROOT
BRANCH  20  21
ATOM     21  O   UNL     1      24.508   6.625   3.120  1.00  0.00    -0.393 OA
ATOM     22  H   UNL     1      24.164   5.962   2.484  1.00  0.00     0.210 HD
ENDBRANCH  20  21
TORSDOF 1
ENDMDL
