MODEL 1
REMARK VINA RESULT:    -9.170      0.000      0.000
REMARK INTER + INTRA:         -23.941
REMARK INTER:                  -9.438
REMARK INTRA:                 -14.503
REMARK UNBOUND:               -14.503
REMARK SMILES C[C@]12CCC(=O)C[C@@H]1CC[C@@H]1[C@@H]2CC[C@]2(C)[C@@H](O)CC[C@@H]12
REMARK SMILES IDX 16 1 15 2 14 3 13 4 12 5 11 6 10 7 9 8 8 9 7 10 5 11 6 12
REMARK SMILES IDX 4 13 3 14 2 15 1 16 21 17 20 18 19 19 17 20 18 21
REMARK H PARENT 18 22
ROOT
ATOM      1  C   UNL     1      24.517   4.133   7.250  1.00  0.00     0.014 C 
ATOM      2  C   UNL     1      24.486   3.697   5.745  1.00  0.00    -0.003 C 
ATOM      3  C   UNL     1      24.122   2.213   5.780  1.00  0.00     0.010 C 
ATOM      4  C   UNL     1      24.663   1.486   4.582  1.00  0.00     0.005 C 
ATOM      5  C   UNL     1      26.185   1.723   4.369  1.00  0.00    -0.001 C 
ATOM      6  C   UNL     1      26.821   2.871   5.269  1.00  0.00    -0.004 C 
ATOM      7  C   UNL     1      28.280   3.132   4.875  1.00  0.00     0.004 C 
ATOM      8  C   UNL     1      29.108   1.882   4.474  1.00  0.00     0.005 C 
ATOM      9  C   UNL     1      28.372   0.694   3.819  1.00  0.00     0.002 C 
ATOM     10  C   UNL     1      29.216  -0.592   3.856  1.00  0.00     0.079 C 
ATOM     11  C   UNL     1      28.484  -1.756   3.209  1.00  0.00     0.133 C 
ATOM     12  O   UNL     1      28.973  -2.885   3.170  1.00  0.00    -0.300 OA
ATOM     13  C   UNL     1      27.170  -1.459   2.538  1.00  0.00     0.076 C 
ATOM     14  C   UNL     1      26.254  -0.643   3.441  1.00  0.00     0.015 C 
ATOM     15  C   UNL     1      26.967   0.397   4.384  1.00  0.00    -0.026 C 
ATOM     16  C   UNL     1      27.017  -0.165   5.827  1.00  0.00     0.012 C 
ATOM     17  C   UNL     1      25.846   4.047   5.062  1.00  0.00     0.001 C 
ATOM     18  C   UNL     1      25.805   5.587   5.187  1.00  0.00     0.007 C 
ATOM     19  C   UNL     1      24.364   5.862   4.622  1.00  0.00     0.032 C 
ATOM     20  C   UNL     1      23.622   4.528   4.722  1.00  0.00     0.120 C 
ENDROOT
BRANCH  20  21
ATOM     21  O   UNL     1      22.253   4.590   4.989  1.00  0.00    -0.393 OA
ATOM     22  H   UNL     1      22.145   5.074   5.835  1.00  0.00     0.210 HD
ENDBRANCH  20  21
TORSDOF 1
BEGIN_RES ASN A 705
REMARK INDEX MAP 3 1 15 2 18 3 19 4 20 5 21 6 22 7
ROOT
ATOM      1  CA  ASN A 705      32.821   2.875   3.276  1.00  0.00     0.180 C 
ENDROOT
BRANCH   1   2
ATOM      2  CB  ASN A 705      33.921   1.807   3.160  1.00  0.00     0.134 C 
BRANCH   2   3
ATOM      3  CG  ASN A 705      33.416   0.414   3.491  1.00  0.00     0.220 C 
ATOM      4 OD1  ASN A 705      32.619   0.234   4.421  1.00  0.00    -0.275 OA
ATOM      5 ND2  ASN A 705      33.893  -0.584   2.752  1.00  0.00    -0.368 N 
ATOM      6 HD22 ASN A 705      33.585  -1.551   2.931  1.00  0.00     0.159 HD
ATOM      7 HD21 ASN A 705      34.570  -0.391   2.001  1.00  0.00     0.159 HD
ENDBRANCH   2   3
ENDBRANCH   1   2
END_RES ASN A 705
BEGIN_RES GLN A 711
REMARK INDEX MAP 3 1 15 2 18 3 21 4 22 5 23 6 24 7 25 8
ROOT
ATOM      8  CA  GLN A 711      29.364  10.676   8.071  1.00  0.00     0.171 C 
ENDROOT
BRANCH   8   9
ATOM      9  CB  GLN A 711      28.300   9.711   7.534  1.00  0.00     0.045 C 
BRANCH   9  10
ATOM     10  CG  GLN A 711      27.389  10.306   6.463  1.00  0.00     0.102 C 
BRANCH  10  11
ATOM     11  CD  GLN A 711      25.989  10.586   6.982  1.00  0.00     0.217 C 
ATOM     12 OE1  GLN A 711      24.993  10.311   6.308  1.00  0.00    -0.275 OA
ATOM     13 NE2  GLN A 711      25.904  11.123   8.192  1.00  0.00    -0.368 N 
ATOM     14 HE22 GLN A 711      24.981  11.336   8.597  1.00  0.00     0.159 HD
ATOM     15 HE21 GLN A 711      26.761  11.328   8.725  1.00  0.00     0.159 HD
ENDBRANCH  10  11
ENDBRANCH   9  10
ENDBRANCH   8   9
END_RES GLN A 711
BEGIN_RES MET A 742
REMARK INDEX MAP 3 1 15 2 18 3 21 4 22 5
ROOT
ATOM     16  CA  MET A 742      24.013   2.280  11.161  1.00  0.00     0.172 C 
ENDROOT
BRANCH  16  17
ATOM     17  CB  MET A 742      24.090   0.750  11.188  1.00  0.00     0.046 C 
BRANCH  17  18
ATOM     18  CG  MET A 742      23.805   0.106   9.820  1.00  0.00     0.072 C 
BRANCH  18  19
ATOM     19  SD  MET A 742      25.221   0.179   8.687  1.00  0.00    -0.165 SA
ATOM     20  CE  MET A 742      26.105  -1.396   9.126  1.00  0.00     0.085 C 
ENDBRANCH  18  19
ENDBRANCH  17  18
ENDBRANCH  16  17
END_RES MET A 742
BEGIN_RES MET A 745
REMARK INDEX MAP 3 1 15 2 18 3 21 4 22 5
ROOT
ATOM     21  CA  MET A 745      22.608   6.839   8.898  1.00  0.00     0.172 C 
ENDROOT
BRANCH  21  22
ATOM     22  CB  MET A 745      24.020   6.348   8.598  1.00  0.00     0.046 C 
BRANCH  22  23
ATOM     23  CG  MET A 745      25.029   7.487   8.578  1.00  0.00     0.072 C 
BRANCH  23  24
ATOM     24  SD  MET A 745      26.460   7.138   9.595  1.00  0.00    -0.165 SA
ATOM     25  CE  MET A 745      27.502   6.188   8.462  1.00  0.00     0.085 C 
ENDBRANCH  23  24
ENDBRANCH  22  23
ENDBRANCH  21  22
END_RES MET A 745
BEGIN_RES ARG A 752
REMARK INDEX MAP 3 1 15 2 18 3 21 4 24 5 25 6 26 7 27 8 28 9 29 10 30 11 31 12
REMARK INDEX MAP 32 13
ROOT
ATOM     26  CA  ARG A 752      17.259  12.328   1.859  1.00  0.00     0.171 C 
ENDROOT
BRANCH  26  27
ATOM     27  CB  ARG A 752      18.791  12.155   1.835  1.00  0.00     0.038 C 
BRANCH  27  28
ATOM     28  CG  ARG A 752      19.499  12.400   3.133  1.00  0.00     0.040 C 
BRANCH  28  29
ATOM     29  CD  ARG A 752      21.005  12.464   2.877  1.00  0.00     0.197 C 
BRANCH  29  30
ATOM     30  NE  ARG A 752      21.668  11.161   2.938  1.00  0.00    -0.278 N 
ATOM     31  HE  ARG A 752      21.523  10.511   2.151  1.00  0.00     0.260 HD
ATOM     32  CZ  ARG A 752      22.446  10.756   3.939  1.00  0.00     0.339 C 
ATOM     33 NH1  ARG A 752      22.663  11.551   4.982  1.00  0.00    -0.290 N 
ATOM     34 NH2  ARG A 752      23.034   9.570   3.880  1.00  0.00    -0.290 N 
ATOM     35 HH12 ARG A 752      23.266  11.233   5.755  1.00  0.00     0.256 HD
ATOM     36 HH11 ARG A 752      22.227  12.484   5.019  1.00  0.00     0.256 HD
ATOM     37 HH22 ARG A 752      23.638   9.255   4.654  1.00  0.00     0.256 HD
ATOM     38 HH21 ARG A 752      22.889   8.963   3.061  1.00  0.00     0.256 HD
ENDBRANCH  29  30
ENDBRANCH  28  29
ENDBRANCH  27  28
ENDBRANCH  26  27
END_RES ARG A 752
BEGIN_RES PHE A 764
REMARK INDEX MAP 3 1 15 2 18 3 19 4 20 5 22 6 23 7 26 8
ROOT
ATOM     39  CA  PHE A 764      23.545   8.171  -0.176  1.00  0.00     0.175 C 
ENDROOT
BRANCH  39  40
ATOM     40  CB  PHE A 764      24.556   7.080  -0.534  1.00  0.00     0.070 C 
BRANCH  40  41
ATOM     41  CG  PHE A 764      24.043   5.689  -0.296  1.00  0.00    -0.045 A 
ATOM     42 CD1  PHE A 764      23.883   5.203   1.000  1.00  0.00     0.004 A 
ATOM     43 CD2  PHE A 764      23.722   4.862  -1.378  1.00  0.00     0.004 A 
ATOM     44 CE1  PHE A 764      23.404   3.902   1.230  1.00  0.00     0.000 A 
ATOM     45 CE2  PHE A 764      23.239   3.559  -1.166  1.00  0.00     0.000 A 
ATOM     46  CZ  PHE A 764      23.079   3.080   0.146  1.00  0.00     0.000 A 
ENDBRANCH  40  41
ENDBRANCH  39  40
END_RES PHE A 764
BEGIN_RES MET A 780
REMARK INDEX MAP 3 1 15 2 18 3 21 4 22 5
ROOT
ATOM     47  CA  MET A 780      23.436  -5.331  -1.775  1.00  0.00     0.172 C 
ENDROOT
BRANCH  47  48
ATOM     48  CB  MET A 780      23.942  -4.022  -1.164  1.00  0.00     0.046 C 
BRANCH  48  49
ATOM     49  CG  MET A 780      24.144  -4.006   0.328  1.00  0.00     0.072 C 
BRANCH  49  50
ATOM     50  SD  MET A 780      23.765  -2.345   0.952  1.00  0.00    -0.165 SA
ATOM     51  CE  MET A 780      24.551  -1.344  -0.285  1.00  0.00     0.085 C 
ENDBRANCH  49  50
ENDBRANCH  48  49
ENDBRANCH  47  48
END_RES MET A 780
BEGIN_RES THR A 877
REMARK INDEX MAP 3 1 15 2 17 3 18 4 22 5
ROOT
ATOM     52  CA  THR A 877      29.361  -5.139   6.286  1.00  0.00     0.199 C 
ENDROOT
BRANCH  52  53
ATOM     53  CB  THR A 877      29.189  -3.734   6.909  1.00  0.00     0.143 C 
ATOM     54 CG2  THR A 877      30.257  -2.780   6.414  1.00  0.00     0.041 C 
BRANCH  53  55
ATOM     55 OG1  THR A 877      27.886  -3.234   6.591  1.00  0.00    -0.389 OA
ATOM     56 HG1  THR A 877      27.962  -2.531   5.897  1.00  0.00     0.211 HD
ENDBRANCH  53  55
ENDBRANCH  52  53
END_RES THR A 877
ENDMDL
MODEL 2
REMARK VINA RESULT:    -8.644      1.528      4.135
REMARK INTER + INTRA:         -23.400
REMARK INTER:                  -9.518
REMARK INTRA:                 -13.882
REMARK UNBOUND:               -14.503
REMARK SMILES C[C@]12CCC(=O)C[C@@H]1CC[C@@H]1[C@@H]2CC[C@]2(C)[C@@H](O)CC[C@@H]12
REMARK SMILES IDX 16 1 15 2 14 3 13 4 12 5 11 6 10 7 9 8 8 9 7 10 5 11 6 12
REMARK SMILES IDX 4 13 3 14 2 15 1 16 21 17 20 18 19 19 17 20 18 21
REMARK H PARENT 18 22
ROOT
ATOM      1  C   UNL     1      28.783   0.349   3.899  1.00  0.00     0.014 C 
ATOM      2  C   UNL     1      27.333   0.776   4.314  1.00  0.00    -0.003 C 
ATOM      3  C   UNL     1      26.833   1.628   3.149  1.00  0.00     0.010 C 
ATOM      4  C   UNL     1      25.805   2.627   3.600  1.00  0.00     0.005 C 
ATOM      5  C   UNL     1      26.286   3.485   4.804  1.00  0.00    -0.001 C 
ATOM      6  C   UNL     1      27.630   2.985   5.494  1.00  0.00    -0.004 C 
ATOM      7  C   UNL     1      27.932   3.799   6.758  1.00  0.00     0.004 C 
ATOM      8  C   UNL     1      27.583   5.310   6.692  1.00  0.00     0.005 C 
ATOM      9  C   UNL     1      26.405   5.752   5.798  1.00  0.00     0.002 C 
ATOM     10  C   UNL     1      26.438   7.264   5.516  1.00  0.00     0.079 C 
ATOM     11  C   UNL     1      25.275   7.691   4.635  1.00  0.00     0.133 C 
ATOM     12  O   UNL     1      25.141   8.855   4.262  1.00  0.00    -0.300 OA
ATOM     13  C   UNL     1      24.238   6.649   4.308  1.00  0.00     0.076 C 
ATOM     14  C   UNL     1      24.881   5.359   3.814  1.00  0.00     0.015 C 
ATOM     15  C   UNL     1      26.264   4.987   4.466  1.00  0.00    -0.026 C 
ATOM     16  C   UNL     1      27.408   5.316   3.473  1.00  0.00     0.012 C 
ATOM     17  C   UNL     1      27.366   1.482   5.707  1.00  0.00     0.001 C 
ATOM     18  C   UNL     1      27.861   0.304   6.578  1.00  0.00     0.007 C 
ATOM     19  C   UNL     1      26.861  -0.813   6.106  1.00  0.00     0.032 C 
ATOM     20  C   UNL     1      26.306  -0.330   4.765  1.00  0.00     0.120 C 
ENDROOT
BRANCH  20  21
ATOM     21  O   UNL     1      26.012  -1.312   3.817  1.00  0.00    -0.393 OA
ATOM     22  H   UNL     1      25.072  -1.564   3.944  1.00  0.00     0.210 HD
ENDBRANCH  20  21
TORSDOF 1
BEGIN_RES ASN A 705
REMARK INDEX MAP 3 1 15 2 18 3 19 4 20 5 21 6 22 7
ROOT
ATOM      1  CA  ASN A 705      32.821   2.875   3.276  1.00  0.00     0.180 C 
ENDROOT
BRANCH   1   2
ATOM      2  CB  ASN A 705      33.921   1.807   3.160  1.00  0.00     0.134 C 
BRANCH   2   3
ATOM      3  CG  ASN A 705      33.406   0.409   3.452  1.00  0.00     0.220 C 
ATOM      4 OD1  ASN A 705      32.559   0.217   4.334  1.00  0.00    -0.275 OA
ATOM      5 ND2  ASN A 705      33.931  -0.581   2.734  1.00  0.00    -0.368 N 
ATOM      6 HD22 ASN A 705      33.620  -1.551   2.890  1.00  0.00     0.159 HD
ATOM      7 HD21 ASN A 705      34.649  -0.379   2.024  1.00  0.00     0.159 HD
ENDBRANCH   2   3
ENDBRANCH   1   2
END_RES ASN A 705
BEGIN_RES GLN A 711
REMARK INDEX MAP 3 1 15 2 18 3 21 4 22 5 23 6 24 7 25 8
ROOT
ATOM      8  CA  GLN A 711      29.364  10.676   8.071  1.00  0.00     0.171 C 
ENDROOT
BRANCH   8   9
ATOM      9  CB  GLN A 711      28.300   9.711   7.534  1.00  0.00     0.045 C 
BRANCH   9  10
ATOM     10  CG  GLN A 711      26.869  10.235   7.621  1.00  0.00     0.102 C 
BRANCH  10  11
ATOM     11  CD  GLN A 711      26.512  11.143   6.456  1.00  0.00     0.217 C 
ATOM     12 OE1  GLN A 711      25.723  12.081   6.598  1.00  0.00    -0.275 OA
ATOM     13 NE2  GLN A 711      27.100  10.877   5.298  1.00  0.00    -0.368 N 
ATOM     14 HE22 GLN A 711      26.898  11.458   4.472  1.00  0.00     0.159 HD
ATOM     15 HE21 GLN A 711      27.760  10.089   5.225  1.00  0.00     0.159 HD
ENDBRANCH  10  11
ENDBRANCH   9  10
ENDBRANCH   8   9
END_RES GLN A 711
BEGIN_RES MET A 742
REMARK INDEX MAP 3 1 15 2 18 3 21 4 22 5
ROOT
ATOM     16  CA  MET A 742      24.013   2.280  11.161  1.00  0.00     0.172 C 
ENDROOT
BRANCH  16  17
ATOM     17  CB  MET A 742      24.090   0.750  11.188  1.00  0.00     0.046 C 
BRANCH  17  18
ATOM     18  CG  MET A 742      24.917   0.166  10.030  1.00  0.00     0.072 C 
BRANCH  18  19
ATOM     19  SD  MET A 742      24.176   0.468   8.400  1.00  0.00    -0.165 SA
ATOM     20  CE  MET A 742      24.887   2.137   7.994  1.00  0.00     0.085 C 
ENDBRANCH  18  19
ENDBRANCH  17  18
ENDBRANCH  16  17
END_RES MET A 742
BEGIN_RES MET A 745
REMARK INDEX MAP 3 1 15 2 18 3 21 4 22 5
ROOT
ATOM     21  CA  MET A 745      22.608   6.839   8.898  1.00  0.00     0.172 C 
ENDROOT
BRANCH  21  22
ATOM     22  CB  MET A 745      24.020   6.348   8.598  1.00  0.00     0.046 C 
BRANCH  22  23
ATOM     23  CG  MET A 745      25.062   7.434   8.821  1.00  0.00     0.072 C 
BRANCH  23  24
ATOM     24  SD  MET A 745      25.945   7.215  10.362  1.00  0.00    -0.165 SA
ATOM     25  CE  MET A 745      27.638   6.932   9.786  1.00  0.00     0.085 C 
ENDBRANCH  23  24
ENDBRANCH  22  23
ENDBRANCH  21  22
END_RES MET A 745
BEGIN_RES ARG A 752
REMARK INDEX MAP 3 1 15 2 18 3 21 4 24 5 25 6 26 7 27 8 28 9 29 10 30 11 31 12
REMARK INDEX MAP 32 13
ROOT
ATOM     26  CA  ARG A 752      17.259  12.328   1.859  1.00  0.00     0.171 C 
ENDROOT
BRANCH  26  27
ATOM     27  CB  ARG A 752      18.791  12.155   1.835  1.00  0.00     0.038 C 
BRANCH  27  28
ATOM     28  CG  ARG A 752      19.506  12.464   3.116  1.00  0.00     0.040 C 
BRANCH  28  29
ATOM     29  CD  ARG A 752      21.011  12.313   2.896  1.00  0.00     0.197 C 
BRANCH  29  30
ATOM     30  NE  ARG A 752      21.759  12.027   4.121  1.00  0.00    -0.278 N 
ATOM     31  HE  ARG A 752      21.697  12.708   4.892  1.00  0.00     0.260 HD
ATOM     32  CZ  ARG A 752      22.513  10.947   4.311  1.00  0.00     0.339 C 
ATOM     33 NH1  ARG A 752      22.635  10.038   3.348  1.00  0.00    -0.290 N 
ATOM     34 NH2  ARG A 752      23.120  10.760   5.474  1.00  0.00    -0.290 N 
ATOM     35 HH12 ARG A 752      23.220   9.203   3.499  1.00  0.00     0.256 HD
ATOM     36 HH11 ARG A 752      22.144  10.168   2.451  1.00  0.00     0.256 HD
ATOM     37 HH22 ARG A 752      23.704   9.924   5.623  1.00  0.00     0.256 HD
ATOM     38 HH21 ARG A 752      23.007  11.449   6.230  1.00  0.00     0.256 HD
ENDBRANCH  29  30
ENDBRANCH  28  29
ENDBRANCH  27  28
ENDBRANCH  26  27
END_RES ARG A 752
BEGIN_RES PHE A 764
REMARK INDEX MAP 3 1 15 2 18 3 19 4 20 5 22 6 23 7 26 8
ROOT
ATOM     39  CA  PHE A 764      23.545   8.171  -0.176  1.00  0.00     0.175 C 
ENDROOT
BRANCH  39  40
ATOM     40  CB  PHE A 764      24.556   7.080  -0.534  1.00  0.00     0.070 C 
BRANCH  40  41
ATOM     41  CG  PHE A 764      24.009   5.689  -0.395  1.00  0.00    -0.045 A 
ATOM     42 CD1  PHE A 764      23.745   5.152   0.864  1.00  0.00     0.004 A 
ATOM     43 CD2  PHE A 764      23.759   4.913  -1.532  1.00  0.00     0.004 A 
ATOM     44 CE1  PHE A 764      23.233   3.850   1.001  1.00  0.00     0.000 A 
ATOM     45 CE2  PHE A 764      23.243   3.611  -1.413  1.00  0.00     0.000 A 
ATOM     46  CZ  PHE A 764      22.979   3.080  -0.138  1.00  0.00     0.000 A 
ENDBRANCH  40  41
ENDBRANCH  39  40
END_RES PHE A 764
BEGIN_RES MET A 780
REMARK INDEX MAP 3 1 15 2 18 3 21 4 22 5
ROOT
ATOM     47  CA  MET A 780      23.436  -5.331  -1.775  1.00  0.00     0.172 C 
ENDROOT
BRANCH  47  48
ATOM     48  CB  MET A 780      23.942  -4.022  -1.164  1.00  0.00     0.046 C 
BRANCH  48  49
ATOM     49  CG  MET A 780      24.175  -4.016   0.323  1.00  0.00     0.072 C 
BRANCH  49  50
ATOM     50  SD  MET A 780      24.919  -2.429   0.793  1.00  0.00    -0.165 SA
ATOM     51  CE  MET A 780      26.048  -2.186  -0.554  1.00  0.00     0.085 C 
ENDBRANCH  49  50
ENDBRANCH  48  49
ENDBRANCH  47  48
END_RES MET A 780
BEGIN_RES THR A 877
REMARK INDEX MAP 3 1 15 2 17 3 18 4 22 5
ROOT
ATOM     52  CA  THR A 877      29.361  -5.139   6.286  1.00  0.00     0.199 C 
ENDROOT
BRANCH  52  53
ATOM     53  CB  THR A 877      29.189  -3.734   6.909  1.00  0.00     0.143 C 
ATOM     54 CG2  THR A 877      30.123  -2.730   6.264  1.00  0.00     0.041 C 
BRANCH  53  55
ATOM     55 OG1  THR A 877      27.827  -3.317   6.761  1.00  0.00    -0.389 OA
ATOM     56 HG1  THR A 877      27.580  -3.332   5.803  1.00  0.00     0.211 HD
ENDBRANCH  53  55
ENDBRANCH  52  53
END_RES THR A 877
ENDMDL
MODEL 3
REMARK VINA RESULT:    -8.193      1.420      2.278
REMARK INTER + INTRA:         -22.936
REMARK INTER:                  -9.521
REMARK INTRA:                 -13.415
REMARK UNBOUND:               -14.503
REMARK SMILES C[C@]12CCC(=O)C[C@@H]1CC[C@@H]1[C@@H]2CC[C@]2(C)[C@@H](O)CC[C@@H]12
REMARK SMILES IDX 16 1 15 2 14 3 13 4 12 5 11 6 10 7 9 8 8 9 7 10 5 11 6 12
REMARK SMILES IDX 4 13 3 14 2 15 1 16 21 17 20 18 19 19 17 20 18 21
REMARK H PARENT 18 22
ROOT
ATOM      1  C   UNL     1      26.062   5.842   2.683  1.00  0.00     0.014 C 
ATOM      2  C   UNL     1      26.163   5.245   4.129  1.00  0.00    -0.003 C 
ATOM      3  C   UNL     1      27.528   4.559   4.170  1.00  0.00     0.010 C 
ATOM      4  C   UNL     1      27.543   3.425   5.156  1.00  0.00     0.005 C 
ATOM      5  C   UNL     1      26.376   2.421   4.939  1.00  0.00    -0.001 C 
ATOM      6  C   UNL     1      25.253   2.902   3.919  1.00  0.00    -0.004 C 
ATOM      7  C   UNL     1      24.077   1.918   3.894  1.00  0.00     0.004 C 
ATOM      8  C   UNL     1      24.446   0.417   4.026  1.00  0.00     0.005 C 
ATOM      9  C   UNL     1      25.702   0.038   4.838  1.00  0.00     0.002 C 
ATOM     10  C   UNL     1      26.161  -1.401   4.544  1.00  0.00     0.079 C 
ATOM     11  C   UNL     1      27.398  -1.765   5.348  1.00  0.00     0.133 C 
ATOM     12  O   UNL     1      27.946  -2.860   5.229  1.00  0.00    -0.300 OA
ATOM     13  C   UNL     1      27.880  -0.765   6.365  1.00  0.00     0.076 C 
ATOM     14  C   UNL     1      27.982   0.633   5.768  1.00  0.00     0.015 C 
ATOM     15  C   UNL     1      26.901   0.997   4.683  1.00  0.00    -0.026 C 
ATOM     16  C   UNL     1      27.539   0.921   3.273  1.00  0.00     0.012 C 
ATOM     17  C   UNL     1      24.932   4.326   4.411  1.00  0.00     0.001 C 
ATOM     18  C   UNL     1      23.804   5.381   4.330  1.00  0.00     0.007 C 
ATOM     19  C   UNL     1      24.401   6.482   5.280  1.00  0.00     0.032 C 
ATOM     20  C   UNL     1      25.898   6.183   5.367  1.00  0.00     0.120 C 
ENDROOT
BRANCH  20  21
ATOM     21  O   UNL     1      26.751   7.280   5.494  1.00  0.00    -0.393 OA
ATOM     22  H   UNL     1      26.245   8.074   5.216  1.00  0.00     0.210 HD
ENDBRANCH  20  21
TORSDOF 1
BEGIN_RES ASN A 705
REMARK INDEX MAP 3 1 15 2 18 3 19 4 20 5 21 6 22 7
ROOT
ATOM      1  CA  ASN A 705      32.821   2.875   3.276  1.00  0.00     0.180 C 
ENDROOT
BRANCH   1   2
ATOM      2  CB  ASN A 705      33.921   1.807   3.160  1.00  0.00     0.134 C 
BRANCH   2   3
ATOM      3  CG  ASN A 705      33.414   0.414   3.485  1.00  0.00     0.220 C 
ATOM      4 OD1  ASN A 705      32.615   0.231   4.413  1.00  0.00    -0.275 OA
ATOM      5 ND2  ASN A 705      33.894  -0.583   2.745  1.00  0.00    -0.368 N 
ATOM      6 HD22 ASN A 705      33.585  -1.550   2.921  1.00  0.00     0.159 HD
ATOM      7 HD21 ASN A 705      34.573  -0.388   1.997  1.00  0.00     0.159 HD
ENDBRANCH   2   3
ENDBRANCH   1   2
END_RES ASN A 705
BEGIN_RES GLN A 711
REMARK INDEX MAP 3 1 15 2 18 3 21 4 22 5 23 6 24 7 25 8
ROOT
ATOM      8  CA  GLN A 711      29.364  10.676   8.071  1.00  0.00     0.171 C 
ENDROOT
BRANCH   8   9
ATOM      9  CB  GLN A 711      28.300   9.711   7.534  1.00  0.00     0.045 C 
BRANCH   9  10
ATOM     10  CG  GLN A 711      27.347  10.325   6.512  1.00  0.00     0.102 C 
BRANCH  10  11
ATOM     11  CD  GLN A 711      25.902  10.302   6.978  1.00  0.00     0.217 C 
ATOM     12 OE1  GLN A 711      25.035   9.700   6.339  1.00  0.00    -0.275 OA
ATOM     13 NE2  GLN A 711      25.635  10.949   8.106  1.00  0.00    -0.368 N 
ATOM     14 HE22 GLN A 711      24.672  10.968   8.472  1.00  0.00     0.159 HD
ATOM     15 HE21 GLN A 711      26.390  11.431   8.614  1.00  0.00     0.159 HD
ENDBRANCH  10  11
ENDBRANCH   9  10
ENDBRANCH   8   9
END_RES GLN A 711
BEGIN_RES MET A 742
REMARK INDEX MAP 3 1 15 2 18 3 21 4 22 5
ROOT
ATOM     16  CA  MET A 742      24.013   2.280  11.161  1.00  0.00     0.172 C 
ENDROOT
BRANCH  16  17
ATOM     17  CB  MET A 742      24.090   0.750  11.188  1.00  0.00     0.046 C 
BRANCH  17  18
ATOM     18  CG  MET A 742      24.928   0.166  10.037  1.00  0.00     0.072 C 
BRANCH  18  19
ATOM     19  SD  MET A 742      24.207   0.479   8.400  1.00  0.00    -0.165 SA
ATOM     20  CE  MET A 742      24.970   2.123   7.988  1.00  0.00     0.085 C 
ENDBRANCH  18  19
ENDBRANCH  17  18
ENDBRANCH  16  17
END_RES MET A 742
BEGIN_RES MET A 745
REMARK INDEX MAP 3 1 15 2 18 3 21 4 22 5
ROOT
ATOM     21  CA  MET A 745      22.608   6.839   8.898  1.00  0.00     0.172 C 
ENDROOT
BRANCH  21  22
ATOM     22  CB  MET A 745      24.020   6.348   8.598  1.00  0.00     0.046 C 
BRANCH  22  23
ATOM     23  CG  MET A 745      25.080   7.329   9.077  1.00  0.00     0.072 C 
BRANCH  23  24
ATOM     24  SD  MET A 745      26.718   6.607   9.072  1.00  0.00    -0.165 SA
ATOM     25  CE  MET A 745      27.389   7.191  10.648  1.00  0.00     0.085 C 
ENDBRANCH  23  24
ENDBRANCH  22  23
ENDBRANCH  21  22
END_RES MET A 745
BEGIN_RES ARG A 752
REMARK INDEX MAP 3 1 15 2 18 3 21 4 24 5 25 6 26 7 27 8 28 9 29 10 30 11 31 12
REMARK INDEX MAP 32 13
ROOT
ATOM     26  CA  ARG A 752      17.259  12.328   1.859  1.00  0.00     0.171 C 
ENDROOT
BRANCH  26  27
ATOM     27  CB  ARG A 752      18.791  12.155   1.835  1.00  0.00     0.038 C 
BRANCH  27  28
ATOM     28  CG  ARG A 752      19.502  12.420   3.128  1.00  0.00     0.040 C 
BRANCH  28  29
ATOM     29  CD  ARG A 752      21.007  12.464   2.871  1.00  0.00     0.197 C 
BRANCH  29  30
ATOM     30  NE  ARG A 752      21.654  11.152   2.935  1.00  0.00    -0.278 N 
ATOM     31  HE  ARG A 752      21.435  10.472   2.192  1.00  0.00     0.260 HD
ATOM     32  CZ  ARG A 752      22.506  10.777   3.885  1.00  0.00     0.339 C 
ATOM     33 NH1  ARG A 752      22.821  11.611   4.872  1.00  0.00    -0.290 N 
ATOM     34 NH2  ARG A 752      23.070   9.578   3.831  1.00  0.00    -0.290 N 
ATOM     35 HH12 ARG A 752      23.481  11.316   5.605  1.00  0.00     0.256 HD
ATOM     36 HH11 ARG A 752      22.403  12.553   4.903  1.00  0.00     0.256 HD
ATOM     37 HH22 ARG A 752      23.731   9.286   4.566  1.00  0.00     0.256 HD
ATOM     38 HH21 ARG A 752      22.849   8.940   3.055  1.00  0.00     0.256 HD
ENDBRANCH  29  30
ENDBRANCH  28  29
ENDBRANCH  27  28
ENDBRANCH  26  27
END_RES ARG A 752
BEGIN_RES PHE A 764
REMARK INDEX MAP 3 1 15 2 18 3 19 4 20 5 22 6 23 7 26 8
ROOT
ATOM     39  CA  PHE A 764      23.545   8.171  -0.176  1.00  0.00     0.175 C 
ENDROOT
BRANCH  39  40
ATOM     40  CB  PHE A 764      24.556   7.080  -0.534  1.00  0.00     0.070 C 
BRANCH  40  41
ATOM     41  CG  PHE A 764      24.008   5.689  -0.396  1.00  0.00    -0.045 A 
ATOM     42 CD1  PHE A 764      23.559   5.221   0.838  1.00  0.00     0.004 A 
ATOM     43 CD2  PHE A 764      23.945   4.843  -1.508  1.00  0.00     0.004 A 
ATOM     44 CE1  PHE A 764      23.046   3.920   0.974  1.00  0.00     0.000 A 
ATOM     45 CE2  PHE A 764      23.431   3.540  -1.391  1.00  0.00     0.000 A 
ATOM     46  CZ  PHE A 764      22.979   3.080  -0.142  1.00  0.00     0.000 A 
ENDBRANCH  40  41
ENDBRANCH  39  40
END_RES PHE A 764
BEGIN_RES MET A 780
REMARK INDEX MAP 3 1 15 2 18 3 21 4 22 5
ROOT
ATOM     47  CA  MET A 780      23.436  -5.331  -1.775  1.00  0.00     0.172 C 
ENDROOT
BRANCH  47  48
ATOM     48  CB  MET A 780      23.942  -4.022  -1.164  1.00  0.00     0.046 C 
BRANCH  48  49
ATOM     49  CG  MET A 780      24.169  -4.014   0.324  1.00  0.00     0.072 C 
BRANCH  49  50
ATOM     50  SD  MET A 780      24.231  -2.294   0.898  1.00  0.00    -0.165 SA
ATOM     51  CE  MET A 780      25.982  -2.008   0.883  1.00  0.00     0.085 C 
ENDBRANCH  49  50
ENDBRANCH  48  49
ENDBRANCH  47  48
END_RES MET A 780
BEGIN_RES THR A 877
REMARK INDEX MAP 3 1 15 2 17 3 18 4 22 5
ROOT
ATOM     52  CA  THR A 877      29.361  -5.139   6.286  1.00  0.00     0.199 C 
ENDROOT
BRANCH  52  53
ATOM     53  CB  THR A 877      29.189  -3.734   6.909  1.00  0.00     0.143 C 
ATOM     54 CG2  THR A 877      29.017  -3.818   8.412  1.00  0.00     0.041 C 
BRANCH  53  55
ATOM     55 OG1  THR A 877      30.327  -2.930   6.580  1.00  0.00    -0.389 OA
ATOM     56 HG1  THR A 877      31.144  -3.490   6.599  1.00  0.00     0.211 HD
ENDBRANCH  53  55
ENDBRANCH  52  53
END_RES THR A 877
ENDMDL
MODEL 4
REMARK VINA RESULT:    -7.433      1.132      1.349
REMARK INTER + INTRA:         -22.153
REMARK INTER:                  -8.184
REMARK INTRA:                 -13.969
REMARK UNBOUND:               -14.503
REMARK SMILES C[C@]12CCC(=O)C[C@@H]1CC[C@@H]1[C@@H]2CC[C@]2(C)[C@@H](O)CC[C@@H]12
REMARK SMILES IDX 16 1 15 2 14 3 13 4 12 5 11 6 10 7 9 8 8 9 7 10 5 11 6 12
REMARK SMILES IDX 4 13 3 14 2 15 1 16 21 17 20 18 19 19 17 20 18 21
REMARK H PARENT 18 22
ROOT
ATOM      1  C   UNL     1      24.120   5.420   6.181  1.00  0.00     0.014 C 
ATOM      2  C   UNL     1      25.064   5.187   4.951  1.00  0.00    -0.003 C 
ATOM      3  C   UNL     1      24.391   4.074   4.151  1.00  0.00     0.010 C 
ATOM      4  C   UNL     1      25.393   3.282   3.360  1.00  0.00     0.005 C 
ATOM      5  C   UNL     1      26.574   2.764   4.228  1.00  0.00    -0.001 C 
ATOM      6  C   UNL     1      26.649   3.373   5.697  1.00  0.00    -0.004 C 
ATOM      7  C   UNL     1      27.928   2.921   6.413  1.00  0.00     0.004 C 
ATOM      8  C   UNL     1      28.388   1.467   6.126  1.00  0.00     0.005 C 
ATOM      9  C   UNL     1      28.061   0.851   4.750  1.00  0.00     0.002 C 
ATOM     10  C   UNL     1      28.205  -0.681   4.760  1.00  0.00     0.079 C 
ATOM     11  C   UNL     1      27.881  -1.279   3.401  1.00  0.00     0.133 C 
ATOM     12  O   UNL     1      27.900  -2.494   3.208  1.00  0.00    -0.300 OA
ATOM     13  C   UNL     1      27.621  -0.320   2.269  1.00  0.00     0.076 C 
ATOM     14  C   UNL     1      26.620   0.757   2.669  1.00  0.00     0.015 C 
ATOM     15  C   UNL     1      26.683   1.230   4.169  1.00  0.00    -0.026 C 
ATOM     16  C   UNL     1      25.513   0.591   4.960  1.00  0.00     0.012 C 
ATOM     17  C   UNL     1      26.515   4.887   5.446  1.00  0.00     0.001 C 
ATOM     18  C   UNL     1      26.833   6.234   6.135  1.00  0.00     0.007 C 
ATOM     19  C   UNL     1      26.410   7.225   4.991  1.00  0.00     0.032 C 
ATOM     20  C   UNL     1      25.493   6.420   4.068  1.00  0.00     0.120 C 
ENDROOT
BRANCH  20  21
ATOM     21  O   UNL     1      24.453   7.118   3.451  1.00  0.00    -0.393 OA
ATOM     22  H   UNL     1      23.628   6.615   3.618  1.00  0.00     0.210 HD
ENDBRANCH  20  21
TORSDOF 1
BEGIN_RES ASN A 705
REMARK INDEX MAP 3 1 15 2 18 3 19 4 20 5 21 6 22 7
ROOT
ATOM      1  CA  ASN A 705      32.821   2.875   3.276  1.00  0.00     0.180 C 
ENDROOT
BRANCH   1   2
ATOM      2  CB  ASN A 705      33.921   1.807   3.160  1.00  0.00     0.134 C 
BRANCH   2   3
ATOM      3  CG  ASN A 705      33.412   0.413   3.477  1.00  0.00     0.220 C 
ATOM      4 OD1  ASN A 705      32.595   0.228   4.389  1.00  0.00    -0.275 OA
ATOM      5 ND2  ASN A 705      33.910  -0.584   2.749  1.00  0.00    -0.368 N 
ATOM      6 HD22 ASN A 705      33.601  -1.551   2.920  1.00  0.00     0.159 HD
ATOM      7 HD21 ASN A 705      34.604  -0.388   2.014  1.00  0.00     0.159 HD
ENDBRANCH   2   3
ENDBRANCH   1   2
END_RES ASN A 705
BEGIN_RES GLN A 711
REMARK INDEX MAP 3 1 15 2 18 3 21 4 22 5 23 6 24 7 25 8
ROOT
ATOM      8  CA  GLN A 711      29.364  10.676   8.071  1.00  0.00     0.171 C 
ENDROOT
BRANCH   8   9
ATOM      9  CB  GLN A 711      28.300   9.711   7.534  1.00  0.00     0.045 C 
BRANCH   9  10
ATOM     10  CG  GLN A 711      27.513  10.239   6.337  1.00  0.00     0.102 C 
BRANCH  10  11
ATOM     11  CD  GLN A 711      26.271  11.009   6.754  1.00  0.00     0.217 C 
ATOM     12 OE1  GLN A 711      25.565  11.579   5.918  1.00  0.00    -0.275 OA
ATOM     13 NE2  GLN A 711      25.989  11.019   8.050  1.00  0.00    -0.368 N 
ATOM     14 HE22 GLN A 711      25.159  11.524   8.392  1.00  0.00     0.159 HD
ATOM     15 HE21 GLN A 711      26.600  10.522   8.713  1.00  0.00     0.159 HD
ENDBRANCH  10  11
ENDBRANCH   9  10
ENDBRANCH   8   9
END_RES GLN A 711
BEGIN_RES MET A 742
REMARK INDEX MAP 3 1 15 2 18 3 21 4 22 5
ROOT
ATOM     16  CA  MET A 742      24.013   2.280  11.161  1.00  0.00     0.172 C 
ENDROOT
BRANCH  16  17
ATOM     17  CB  MET A 742      24.090   0.750  11.188  1.00  0.00     0.046 C 
BRANCH  17  18
ATOM     18  CG  MET A 742      23.807   0.106   9.820  1.00  0.00     0.072 C 
BRANCH  18  19
ATOM     19  SD  MET A 742      25.028   0.555   8.553  1.00  0.00    -0.165 SA
ATOM     20  CE  MET A 742      26.073  -0.982   8.512  1.00  0.00     0.085 C 
ENDBRANCH  18  19
ENDBRANCH  17  18
ENDBRANCH  16  17
END_RES MET A 742
BEGIN_RES MET A 745
REMARK INDEX MAP 3 1 15 2 18 3 21 4 22 5
ROOT
ATOM     21  CA  MET A 745      22.608   6.839   8.898  1.00  0.00     0.172 C 
ENDROOT
BRANCH  21  22
ATOM     22  CB  MET A 745      24.020   6.348   8.598  1.00  0.00     0.046 C 
BRANCH  22  23
ATOM     23  CG  MET A 745      25.060   7.440   8.801  1.00  0.00     0.072 C 
BRANCH  23  24
ATOM     24  SD  MET A 745      25.967   7.232  10.329  1.00  0.00    -0.165 SA
ATOM     25  CE  MET A 745      27.652   6.954   9.729  1.00  0.00     0.085 C 
ENDBRANCH  23  24
ENDBRANCH  22  23
ENDBRANCH  21  22
END_RES MET A 745
BEGIN_RES ARG A 752
REMARK INDEX MAP 3 1 15 2 18 3 21 4 24 5 25 6 26 7 27 8 28 9 29 10 30 11 31 12
REMARK INDEX MAP 32 13
ROOT
ATOM     26  CA  ARG A 752      17.259  12.328   1.859  1.00  0.00     0.171 C 
ENDROOT
BRANCH  26  27
ATOM     27  CB  ARG A 752      18.791  12.155   1.835  1.00  0.00     0.038 C 
BRANCH  27  28
ATOM     28  CG  ARG A 752      19.506  12.463   3.116  1.00  0.00     0.040 C 
BRANCH  28  29
ATOM     29  CD  ARG A 752      20.915  11.875   3.055  1.00  0.00     0.197 C 
BRANCH  29  30
ATOM     30  NE  ARG A 752      21.456  11.508   4.365  1.00  0.00    -0.278 N 
ATOM     31  HE  ARG A 752      21.085  11.997   5.192  1.00  0.00     0.260 HD
ATOM     32  CZ  ARG A 752      22.395  10.585   4.562  1.00  0.00     0.339 C 
ATOM     33 NH1  ARG A 752      22.915   9.927   3.530  1.00  0.00    -0.290 N 
ATOM     34 NH2  ARG A 752      22.790  10.297   5.794  1.00  0.00    -0.290 N 
ATOM     35 HH12 ARG A 752      23.640   9.213   3.687  1.00  0.00     0.256 HD
ATOM     36 HH11 ARG A 752      22.591  10.130   2.573  1.00  0.00     0.256 HD
ATOM     37 HH22 ARG A 752      23.516   9.582   5.948  1.00  0.00     0.256 HD
ATOM     38 HH21 ARG A 752      22.371  10.786   6.597  1.00  0.00     0.256 HD
ENDBRANCH  29  30
ENDBRANCH  28  29
ENDBRANCH  27  28
ENDBRANCH  26  27
END_RES ARG A 752
BEGIN_RES PHE A 764
REMARK INDEX MAP 3 1 15 2 18 3 19 4 20 5 22 6 23 7 26 8
ROOT
ATOM     39  CA  PHE A 764      23.545   8.171  -0.176  1.00  0.00     0.175 C 
ENDROOT
BRANCH  39  40
ATOM     40  CB  PHE A 764      24.556   7.080  -0.534  1.00  0.00     0.070 C 
BRANCH  40  41
ATOM     41  CG  PHE A 764      24.000   5.690  -0.421  1.00  0.00    -0.045 A 
ATOM     42 CD1  PHE A 764      23.462   5.235   0.781  1.00  0.00     0.004 A 
ATOM     43 CD2  PHE A 764      24.019   4.832  -1.526  1.00  0.00     0.004 A 
ATOM     44 CE1  PHE A 764      22.940   3.935   0.894  1.00  0.00     0.000 A 
ATOM     45 CE2  PHE A 764      23.499   3.530  -1.432  1.00  0.00     0.000 A 
ATOM     46  CZ  PHE A 764      22.956   3.083  -0.215  1.00  0.00     0.000 A 
ENDBRANCH  40  41
ENDBRANCH  39  40
END_RES PHE A 764
BEGIN_RES MET A 780
REMARK INDEX MAP 3 1 15 2 18 3 21 4 22 5
ROOT
ATOM     47  CA  MET A 780      23.436  -5.331  -1.775  1.00  0.00     0.172 C 
ENDROOT
BRANCH  47  48
ATOM     48  CB  MET A 780      23.942  -4.022  -1.164  1.00  0.00     0.046 C 
BRANCH  48  49
ATOM     49  CG  MET A 780      24.535  -4.105   0.217  1.00  0.00     0.072 C 
BRANCH  49  50
ATOM     50  SD  MET A 780      25.562  -2.638   0.503  1.00  0.00    -0.165 SA
ATOM     51  CE  MET A 780      24.426  -1.351   0.054  1.00  0.00     0.085 C 
ENDBRANCH  49  50
ENDBRANCH  48  49
ENDBRANCH  47  48
END_RES MET A 780
BEGIN_RES THR A 877
REMARK INDEX MAP 3 1 15 2 17 3 18 4 22 5
ROOT
ATOM     52  CA  THR A 877      29.361  -5.139   6.286  1.00  0.00     0.199 C 
ENDROOT
BRANCH  52  53
ATOM     53  CB  THR A 877      29.189  -3.734   6.909  1.00  0.00     0.143 C 
ATOM     54 CG2  THR A 877      30.167  -2.744   6.309  1.00  0.00     0.041 C 
BRANCH  53  55
ATOM     55 OG1  THR A 877      27.842  -3.291   6.708  1.00  0.00    -0.389 OA
ATOM     56 HG1  THR A 877      27.276  -3.607   7.456  1.00  0.00     0.211 HD
ENDBRANCH  53  55
ENDBRANCH  52  53
END_RES THR A 877
ENDMDL
MODEL 5
REMARK VINA RESULT:    -6.513      1.225      1.846
REMARK INTER + INTRA:         -21.207
REMARK INTER:                  -8.352
REMARK INTRA:                 -12.855
REMARK UNBOUND:               -14.503
REMARK SMILES C[C@]12CCC(=O)C[C@@H]1CC[C@@H]1[C@@H]2CC[C@]2(C)[C@@H](O)CC[C@@H]12
REMARK SMILES IDX 16 1 15 2 14 3 13 4 12 5 11 6 10 7 9 8 8 9 7 10 5 11 6 12
REMARK SMILES IDX 4 13 3 14 2 15 1 16 21 17 20 18 19 19 17 20 18 21
REMARK H PARENT 18 22
ROOT
ATOM      1  C   UNL     1      26.244   5.211   5.459  1.00  0.00     0.014 C 
ATOM      2  C   UNL     1      25.599   3.838   5.856  1.00  0.00    -0.003 C 
ATOM      3  C   UNL     1      26.710   3.085   6.585  1.00  0.00     0.010 C 
ATOM      4  C   UNL     1      26.538   1.597   6.463  1.00  0.00     0.005 C 
ATOM      5  C   UNL     1      26.366   1.129   4.990  1.00  0.00    -0.001 C 
ATOM      6  C   UNL     1      26.138   2.298   3.934  1.00  0.00    -0.004 C 
ATOM      7  C   UNL     1      25.825   1.727   2.545  1.00  0.00     0.004 C 
ATOM      8  C   UNL     1      26.591   0.435   2.154  1.00  0.00     0.005 C 
ATOM      9  C   UNL     1      26.998  -0.544   3.275  1.00  0.00     0.002 C 
ATOM     10  C   UNL     1      28.075  -1.537   2.804  1.00  0.00     0.079 C 
ATOM     11  C   UNL     1      28.470  -2.497   3.914  1.00  0.00     0.133 C 
ATOM     12  O   UNL     1      29.345  -3.346   3.752  1.00  0.00    -0.300 OA
ATOM     13  C   UNL     1      27.685  -2.429   5.197  1.00  0.00     0.076 C 
ATOM     14  C   UNL     1      27.564  -0.997   5.702  1.00  0.00     0.015 C 
ATOM     15  C   UNL     1      27.453   0.115   4.593  1.00  0.00    -0.026 C 
ATOM     16  C   UNL     1      28.816   0.839   4.450  1.00  0.00     0.012 C 
ATOM     17  C   UNL     1      25.022   3.136   4.586  1.00  0.00     0.001 C 
ATOM     18  C   UNL     1      23.932   4.162   4.200  1.00  0.00     0.007 C 
ATOM     19  C   UNL     1      23.223   4.333   5.592  1.00  0.00     0.032 C 
ATOM     20  C   UNL     1      24.226   3.830   6.631  1.00  0.00     0.120 C 
ENDROOT
BRANCH  20  21
ATOM     21  O   UNL     1      24.222   4.472   7.870  1.00  0.00    -0.393 OA
ATOM     22  H   UNL     1      24.613   5.362   7.736  1.00  0.00     0.210 HD
ENDBRANCH  20  21
TORSDOF 1
BEGIN_RES ASN A 705
REMARK INDEX MAP 3 1 15 2 18 3 19 4 20 5 21 6 22 7
ROOT
ATOM      1  CA  ASN A 705      32.821   2.875   3.276  1.00  0.00     0.180 C 
ENDROOT
BRANCH   1   2
ATOM      2  CB  ASN A 705      33.921   1.807   3.160  1.00  0.00     0.134 C 
BRANCH   2   3
ATOM      3  CG  ASN A 705      33.408   0.410   3.458  1.00  0.00     0.220 C 
ATOM      4 OD1  ASN A 705      33.855  -0.572   2.852  1.00  0.00    -0.275 OA
ATOM      5 ND2  ASN A 705      32.446   0.311   4.373  1.00  0.00    -0.368 N 
ATOM      6 HD22 ASN A 705      32.060  -0.613   4.616  1.00  0.00     0.159 HD
ATOM      7 HD21 ASN A 705      32.089   1.157   4.839  1.00  0.00     0.159 HD
ENDBRANCH   2   3
ENDBRANCH   1   2
END_RES ASN A 705
BEGIN_RES GLN A 711
REMARK INDEX MAP 3 1 15 2 18 3 21 4 22 5 23 6 24 7 25 8
ROOT
ATOM      8  CA  GLN A 711      29.364  10.676   8.071  1.00  0.00     0.171 C 
ENDROOT
BRANCH   8   9
ATOM      9  CB  GLN A 711      28.300   9.711   7.534  1.00  0.00     0.045 C 
BRANCH   9  10
ATOM     10  CG  GLN A 711      27.526  10.231   6.326  1.00  0.00     0.102 C 
BRANCH  10  11
ATOM     11  CD  GLN A 711      26.247  10.950   6.721  1.00  0.00     0.217 C 
ATOM     12 OE1  GLN A 711      25.565  11.545   5.883  1.00  0.00    -0.275 OA
ATOM     13 NE2  GLN A 711      25.907  10.888   8.002  1.00  0.00    -0.368 N 
ATOM     14 HE22 GLN A 711      25.049  11.356   8.330  1.00  0.00     0.159 HD
ATOM     15 HE21 GLN A 711      26.500  10.372   8.668  1.00  0.00     0.159 HD
ENDBRANCH  10  11
ENDBRANCH   9  10
ENDBRANCH   8   9
END_RES GLN A 711
BEGIN_RES MET A 742
REMARK INDEX MAP 3 1 15 2 18 3 21 4 22 5
ROOT
ATOM     16  CA  MET A 742      24.013   2.280  11.161  1.00  0.00     0.172 C 
ENDROOT
BRANCH  16  17
ATOM     17  CB  MET A 742      24.090   0.750  11.188  1.00  0.00     0.046 C 
BRANCH  17  18
ATOM     18  CG  MET A 742      23.565   0.095   9.899  1.00  0.00     0.072 C 
BRANCH  18  19
ATOM     19  SD  MET A 742      24.740   0.193   8.518  1.00  0.00    -0.165 SA
ATOM     20  CE  MET A 742      25.927  -1.164   8.969  1.00  0.00     0.085 C 
ENDBRANCH  18  19
ENDBRANCH  17  18
ENDBRANCH  16  17
END_RES MET A 742
BEGIN_RES MET A 745
REMARK INDEX MAP 3 1 15 2 18 3 21 4 22 5
ROOT
ATOM     21  CA  MET A 745      22.608   6.839   8.898  1.00  0.00     0.172 C 
ENDROOT
BRANCH  21  22
ATOM     22  CB  MET A 745      24.020   6.348   8.598  1.00  0.00     0.046 C 
BRANCH  22  23
ATOM     23  CG  MET A 745      25.075   7.379   8.972  1.00  0.00     0.072 C 
BRANCH  23  24
ATOM     24  SD  MET A 745      26.724   6.682   8.984  1.00  0.00    -0.165 SA
ATOM     25  CE  MET A 745      27.272   7.046  10.670  1.00  0.00     0.085 C 
ENDBRANCH  23  24
ENDBRANCH  22  23
ENDBRANCH  21  22
END_RES MET A 745
BEGIN_RES ARG A 752
REMARK INDEX MAP 3 1 15 2 18 3 21 4 24 5 25 6 26 7 27 8 28 9 29 10 30 11 31 12
REMARK INDEX MAP 32 13
ROOT
ATOM     26  CA  ARG A 752      17.259  12.328   1.859  1.00  0.00     0.171 C 
ENDROOT
BRANCH  26  27
ATOM     27  CB  ARG A 752      18.791  12.155   1.835  1.00  0.00     0.038 C 
BRANCH  27  28
ATOM     28  CG  ARG A 752      19.506  12.464   3.116  1.00  0.00     0.040 C 
BRANCH  28  29
ATOM     29  CD  ARG A 752      21.014  12.369   2.881  1.00  0.00     0.197 C 
BRANCH  29  30
ATOM     30  NE  ARG A 752      21.620  11.158   3.436  1.00  0.00    -0.278 N 
ATOM     31  HE  ARG A 752      21.497  10.278   2.914  1.00  0.00     0.260 HD
ATOM     32  CZ  ARG A 752      22.322  11.114   4.566  1.00  0.00     0.339 C 
ATOM     33 NH1  ARG A 752      22.507  12.218   5.283  1.00  0.00    -0.290 N 
ATOM     34 NH2  ARG A 752      22.865   9.972   4.962  1.00  0.00    -0.290 N 
ATOM     35 HH12 ARG A 752      23.051  12.180   6.157  1.00  0.00     0.256 HD
ATOM     36 HH11 ARG A 752      22.107  13.113   4.964  1.00  0.00     0.256 HD
ATOM     37 HH22 ARG A 752      23.408   9.936   5.837  1.00  0.00     0.256 HD
ATOM     38 HH21 ARG A 752      22.745   9.120   4.396  1.00  0.00     0.256 HD
ENDBRANCH  29  30
ENDBRANCH  28  29
ENDBRANCH  27  28
ENDBRANCH  26  27
END_RES ARG A 752
BEGIN_RES PHE A 764
REMARK INDEX MAP 3 1 15 2 18 3 19 4 20 5 22 6 23 7 26 8
ROOT
ATOM     39  CA  PHE A 764      23.545   8.171  -0.176  1.00  0.00     0.175 C 
ENDROOT
BRANCH  39  40
ATOM     40  CB  PHE A 764      24.556   7.080  -0.534  1.00  0.00     0.070 C 
BRANCH  40  41
ATOM     41  CG  PHE A 764      24.007   5.689  -0.400  1.00  0.00    -0.045 A 
ATOM     42 CD1  PHE A 764      23.771   4.907  -1.529  1.00  0.00     0.004 A 
ATOM     43 CD2  PHE A 764      23.723   5.162   0.864  1.00  0.00     0.004 A 
ATOM     44 CE1  PHE A 764      23.256   3.604  -1.411  1.00  0.00     0.000 A 
ATOM     45 CE2  PHE A 764      23.211   3.861   1.001  1.00  0.00     0.000 A 
ATOM     46  CZ  PHE A 764      22.979   3.080  -0.145  1.00  0.00     0.000 A 
ENDBRANCH  40  41
ENDBRANCH  39  40
END_RES PHE A 764
BEGIN_RES MET A 780
REMARK INDEX MAP 3 1 15 2 18 3 21 4 22 5
ROOT
ATOM     47  CA  MET A 780      23.436  -5.331  -1.775  1.00  0.00     0.172 C 
ENDROOT
BRANCH  47  48
ATOM     48  CB  MET A 780      23.942  -4.022  -1.164  1.00  0.00     0.046 C 
BRANCH  48  49
ATOM     49  CG  MET A 780      24.237  -4.034   0.312  1.00  0.00     0.072 C 
BRANCH  49  50
ATOM     50  SD  MET A 780      24.300  -2.324   0.911  1.00  0.00    -0.165 SA
ATOM     51  CE  MET A 780      24.752  -1.472  -0.579  1.00  0.00     0.085 C 
ENDBRANCH  49  50
ENDBRANCH  48  49
ENDBRANCH  47  48
END_RES MET A 780
BEGIN_RES THR A 877
REMARK INDEX MAP 3 1 15 2 17 3 18 4 22 5
ROOT
ATOM     52  CA  THR A 877      29.361  -5.139   6.286  1.00  0.00     0.199 C 
ENDROOT
BRANCH  52  53
ATOM     53  CB  THR A 877      29.189  -3.734   6.909  1.00  0.00     0.143 C 
ATOM     54 CG2  THR A 877      28.910  -3.824   8.396  1.00  0.00     0.041 C 
BRANCH  53  55
ATOM     55 OG1  THR A 877      30.371  -2.964   6.667  1.00  0.00    -0.389 OA
ATOM     56 HG1  THR A 877      30.317  -2.548   5.770  1.00  0.00     0.211 HD
ENDBRANCH  53  55
ENDBRANCH  52  53
END_RES THR A 877
ENDMDL
