MODEL 1
REMARK VINA RESULT:    -5.035      0.000      0.000
REMARK INTER + INTRA:          -4.905
REMARK INTER:                  -5.623
REMARK INTRA:                   0.718
REMARK UNBOUND:                 0.718
REMARK SMILES CC(C)(C)NC(=O)[C@@H]1CC[C@@H]2[C@H]3CC[C@@H]4NC(=O)C=C[C@@]4(C)[C@@H]3CC[C@]21C
REMARK SMILES IDX 5 1 6 2 7 3 2 5 1 6 3 7 4 8 8 9 9 10 26 11 10 12 25 13 11 14
REMARK SMILES IDX 24 15 12 16 23 17 13 18 21 19 14 20 20 21 15 22 19 23 16 24
REMARK SMILES IDX 17 25 18 26 27 27 22 28
REMARK H PARENT 5 4 16 29
ROOT
ATOM      1  N   UNL     1      25.364   5.980   4.807  1.00  0.00    -0.351 N 
ATOM      2  C   UNL     1      24.174   5.315   4.686  1.00  0.00     0.224 C 
ATOM      3  O   UNL     1      23.088   5.885   4.638  1.00  0.00    -0.275 OA
ATOM      4  H   UNL     1      26.211   5.414   4.866  1.00  0.00     0.163 HD
ENDROOT
BRANCH   1   5
ATOM      5  C   UNL     1      25.485   7.425   4.946  1.00  0.00     0.032 C 
ATOM      6  C   UNL     1      24.520   7.954   5.998  1.00  0.00     0.034 C 
ATOM      7  C   UNL     1      25.243   8.143   3.591  1.00  0.00     0.034 C 
ATOM      8  C   UNL     1      26.934   7.713   5.370  1.00  0.00     0.034 C 
ENDBRANCH   1   5
BRANCH   2   9
ATOM      9  C   UNL     1      24.229   3.810   4.575  1.00  0.00     0.084 C 
ATOM     10  C   UNL     1      23.325   2.958   5.478  1.00  0.00     0.014 C 
ATOM     11  C   UNL     1      25.615   3.141   4.705  1.00  0.00    -0.018 C 
ATOM     12  C   UNL     1      23.944   1.546   5.381  1.00  0.00     0.005 C 
ATOM     13  C   UNL     1      26.621   3.559   3.627  1.00  0.00     0.008 C 
ATOM     14  C   UNL     1      25.127   1.723   4.408  1.00  0.00    -0.001 C 
ATOM     15  C   UNL     1      27.752   2.532   3.440  1.00  0.00     0.005 C 
ATOM     16  C   UNL     1      26.230   0.671   4.347  1.00  0.00    -0.003 C 
ATOM     17  C   UNL     1      27.309   1.040   3.243  1.00  0.00     0.004 C 
ATOM     18  C   UNL     1      25.547  -0.675   4.137  1.00  0.00     0.006 C 
ATOM     19  C   UNL     1      28.494  -0.018   3.327  1.00  0.00     0.009 C 
ATOM     20  C   UNL     1      26.377  -1.711   3.444  1.00  0.00     0.026 C 
ATOM     21  C   UNL     1      29.606  -0.293   2.281  1.00  0.00    -0.012 C 
ATOM     22  C   UNL     1      27.869  -1.459   3.337  1.00  0.00     0.092 C 
ATOM     23  C   UNL     1      30.362  -1.419   2.454  1.00  0.00     0.067 C 
ATOM     24  N   UNL     1      28.750  -2.351   4.034  1.00  0.00    -0.349 N 
ATOM     25  C   UNL     1      30.066  -2.382   3.593  1.00  0.00     0.243 C 
ATOM     26  O   UNL     1      30.921  -3.085   4.105  1.00  0.00    -0.270 OA
ATOM     27  C   UNL     1      26.246   3.261   6.123  1.00  0.00     0.012 C 
ATOM     28  C   UNL     1      29.411   0.448   4.514  1.00  0.00     0.018 C 
ATOM     29  H   UNL     1      28.492  -2.846   4.880  1.00  0.00     0.164 HD
ENDBRANCH   2   9
TORSDOF 2
ENDMDL
MODEL 2
REMARK VINA RESULT:    -4.133      1.611      7.758
REMARK INTER + INTRA:          -3.899
REMARK INTER:                  -4.690
REMARK INTRA:                   0.791
REMARK UNBOUND:                 0.718
REMARK SMILES CC(C)(C)NC(=O)[C@@H]1CC[C@@H]2[C@H]3CC[C@@H]4NC(=O)C=C[C@@]4(C)[C@@H]3CC[C@]21C
REMARK SMILES IDX 5 1 6 2 7 3 2 5 1 6 3 7 4 8 8 9 9 10 26 11 10 12 25 13 11 14
REMARK SMILES IDX 24 15 12 16 23 17 13 18 21 19 14 20 20 21 15 22 19 23 16 24
REMARK SMILES IDX 17 25 18 26 27 27 22 28
REMARK H PARENT 5 4 16 29
ROOT
ATOM      1  N   UNL     1      28.406  -1.043   3.752  1.00  0.00    -0.351 N 
ATOM      2  C   UNL     1      27.274  -1.381   4.442  1.00  0.00     0.224 C 
ATOM      3  O   UNL     1      27.147  -2.445   5.043  1.00  0.00    -0.275 OA
ATOM      4  H   UNL     1      28.404  -0.147   3.263  1.00  0.00     0.163 HD
ENDROOT
BRANCH   1   5
ATOM      5  C   UNL     1      29.565  -1.913   3.599  1.00  0.00     0.032 C 
ATOM      6  C   UNL     1      29.137  -3.365   3.444  1.00  0.00     0.034 C 
ATOM      7  C   UNL     1      30.539  -1.768   4.799  1.00  0.00     0.034 C 
ATOM      8  C   UNL     1      30.310  -1.447   2.338  1.00  0.00     0.034 C 
ENDBRANCH   1   5
BRANCH   2   9
ATOM      9  C   UNL     1      26.156  -0.367   4.481  1.00  0.00     0.084 C 
ATOM     10  C   UNL     1      24.886  -0.619   3.656  1.00  0.00     0.014 C 
ATOM     11  C   UNL     1      26.519   1.100   4.160  1.00  0.00    -0.018 C 
ATOM     12  C   UNL     1      24.199   0.764   3.619  1.00  0.00     0.005 C 
ATOM     13  C   UNL     1      27.528   1.727   5.128  1.00  0.00     0.008 C 
ATOM     14  C   UNL     1      25.130   1.667   4.452  1.00  0.00    -0.001 C 
ATOM     15  C   UNL     1      27.467   3.265   5.137  1.00  0.00     0.005 C 
ATOM     16  C   UNL     1      25.027   3.184   4.337  1.00  0.00    -0.003 C 
ATOM     17  C   UNL     1      26.045   3.901   5.320  1.00  0.00     0.004 C 
ATOM     18  C   UNL     1      23.564   3.547   4.567  1.00  0.00     0.006 C 
ATOM     19  C   UNL     1      25.984   5.468   5.051  1.00  0.00     0.009 C 
ATOM     20  C   UNL     1      23.326   4.922   5.113  1.00  0.00     0.026 C 
ATOM     21  C   UNL     1      26.525   6.614   5.946  1.00  0.00    -0.012 C 
ATOM     22  C   UNL     1      24.476   5.910   5.053  1.00  0.00     0.092 C 
ATOM     23  C   UNL     1      26.134   7.887   5.637  1.00  0.00     0.067 C 
ATOM     24  N   UNL     1      24.322   7.067   4.220  1.00  0.00    -0.349 N 
ATOM     25  C   UNL     1      25.156   8.141   4.500  1.00  0.00     0.243 C 
ATOM     26  O   UNL     1      25.138   9.179   3.861  1.00  0.00    -0.270 OA
ATOM     27  C   UNL     1      26.954   1.336   2.684  1.00  0.00     0.012 C 
ATOM     28  C   UNL     1      26.876   5.729   3.786  1.00  0.00     0.018 C 
ATOM     29  H   UNL     1      23.740   7.086   3.389  1.00  0.00     0.164 HD
ENDBRANCH   2   9
TORSDOF 2
ENDMDL
MODEL 3
REMARK VINA RESULT:    -3.874      1.842      8.260
REMARK INTER + INTRA:          -3.608
REMARK INTER:                  -4.037
REMARK INTRA:                   0.429
REMARK UNBOUND:                 0.718
REMARK SMILES CC(C)(C)NC(=O)[C@@H]1CC[C@@H]2[C@H]3CC[C@@H]4NC(=O)C=C[C@@]4(C)[C@@H]3CC[C@]21C
REMARK SMILES IDX 5 1 6 2 7 3 2 5 1 6 3 7 4 8 8 9 9 10 26 11 10 12 25 13 11 14
REMARK SMILES IDX 24 15 12 16 23 17 13 18 21 19 14 20 20 21 15 22 19 23 16 24
REMARK SMILES IDX 17 25 18 26 27 27 22 28
REMARK H PARENT 5 4 16 29
ROOT
ATOM      1  N   UNL     1      27.903  -0.902   4.264  1.00  0.00    -0.351 N 
ATOM      2  C   UNL     1      28.565   0.090   3.593  1.00  0.00     0.224 C 
ATOM      3  O   UNL     1      29.042  -0.060   2.471  1.00  0.00    -0.275 OA
ATOM      4  H   UNL     1      27.566  -0.686   5.202  1.00  0.00     0.163 HD
ENDROOT
BRANCH   1   5
ATOM      5  C   UNL     1      27.733  -2.259   3.761  1.00  0.00     0.032 C 
ATOM      6  C   UNL     1      26.774  -3.048   4.642  1.00  0.00     0.034 C 
ATOM      7  C   UNL     1      29.094  -2.997   3.660  1.00  0.00     0.034 C 
ATOM      8  C   UNL     1      27.163  -2.140   2.339  1.00  0.00     0.034 C 
ENDBRANCH   1   5
BRANCH   2   9
ATOM      9  C   UNL     1      28.668   1.436   4.271  1.00  0.00     0.084 C 
ATOM     10  C   UNL     1      29.350   1.533   5.644  1.00  0.00     0.014 C 
ATOM     11  C   UNL     1      27.362   2.241   4.450  1.00  0.00    -0.018 C 
ATOM     12  C   UNL     1      28.902   2.914   6.172  1.00  0.00     0.005 C 
ATOM     13  C   UNL     1      26.669   2.618   3.136  1.00  0.00     0.008 C 
ATOM     14  C   UNL     1      28.030   3.485   5.036  1.00  0.00    -0.001 C 
ATOM     15  C   UNL     1      25.726   3.826   3.288  1.00  0.00     0.005 C 
ATOM     16  C   UNL     1      27.081   4.646   5.311  1.00  0.00    -0.003 C 
ATOM     17  C   UNL     1      26.329   5.093   3.987  1.00  0.00     0.004 C 
ATOM     18  C   UNL     1      27.905   5.745   5.972  1.00  0.00     0.006 C 
ATOM     19  C   UNL     1      25.260   6.208   4.370  1.00  0.00     0.009 C 
ATOM     20  C   UNL     1      27.392   7.137   5.768  1.00  0.00     0.026 C 
ATOM     21  C   UNL     1      24.514   7.183   3.421  1.00  0.00    -0.012 C 
ATOM     22  C   UNL     1      25.975   7.295   5.251  1.00  0.00     0.092 C 
ATOM     23  C   UNL     1      23.836   8.220   3.999  1.00  0.00     0.067 C 
ATOM     24  N   UNL     1      25.010   7.909   6.117  1.00  0.00    -0.349 N 
ATOM     25  C   UNL     1      23.878   8.430   5.505  1.00  0.00     0.243 C 
ATOM     26  O   UNL     1      22.976   8.966   6.125  1.00  0.00    -0.270 OA
ATOM     27  C   UNL     1      26.350   1.594   5.440  1.00  0.00     0.012 C 
ATOM     28  C   UNL     1      24.011   5.439   4.932  1.00  0.00     0.018 C 
ATOM     29  H   UNL     1      25.060   7.869   7.129  1.00  0.00     0.164 HD
ENDBRANCH   2   9
TORSDOF 2
ENDMDL
MODEL 4
REMARK VINA RESULT:    -3.333      1.442      2.666
REMARK INTER + INTRA:          -3.004
REMARK INTER:                  -3.384
REMARK INTRA:                   0.380
REMARK UNBOUND:                 0.718
REMARK SMILES CC(C)(C)NC(=O)[C@@H]1CC[C@@H]2[C@H]3CC[C@@H]4NC(=O)C=C[C@@]4(C)[C@@H]3CC[C@]21C
REMARK SMILES IDX 5 1 6 2 7 3 2 5 1 6 3 7 4 8 8 9 9 10 26 11 10 12 25 13 11 14
REMARK SMILES IDX 24 15 12 16 23 17 13 18 21 19 14 20 20 21 15 22 19 23 16 24
REMARK SMILES IDX 17 25 18 26 27 27 22 28
REMARK H PARENT 5 4 16 29
ROOT
ATOM      1  N   UNL     1      25.577   7.064   5.051  1.00  0.00    -0.351 N 
ATOM      2  C   UNL     1      25.054   5.853   5.414  1.00  0.00     0.224 C 
ATOM      3  O   UNL     1      23.859   5.584   5.326  1.00  0.00    -0.275 OA
ATOM      4  H   UNL     1      26.579   7.199   5.187  1.00  0.00     0.163 HD
ENDROOT
BRANCH   1   5
ATOM      5  C   UNL     1      24.785   8.189   4.572  1.00  0.00     0.032 C 
ATOM      6  C   UNL     1      25.676   9.256   3.950  1.00  0.00     0.034 C 
ATOM      7  C   UNL     1      23.933   8.805   5.714  1.00  0.00     0.034 C 
ATOM      8  C   UNL     1      23.814   7.635   3.516  1.00  0.00     0.034 C 
ENDBRANCH   1   5
BRANCH   2   9
ATOM      9  C   UNL     1      26.018   4.802   5.911  1.00  0.00     0.084 C 
ATOM     10  C   UNL     1      27.323   5.243   6.590  1.00  0.00     0.014 C 
ATOM     11  C   UNL     1      26.473   3.725   4.902  1.00  0.00    -0.018 C 
ATOM     12  C   UNL     1      28.190   3.965   6.572  1.00  0.00     0.005 C 
ATOM     13  C   UNL     1      25.337   2.855   4.352  1.00  0.00     0.008 C 
ATOM     14  C   UNL     1      27.284   2.908   5.908  1.00  0.00    -0.001 C 
ATOM     15  C   UNL     1      25.834   1.503   3.809  1.00  0.00     0.005 C 
ATOM     16  C   UNL     1      27.890   1.627   5.345  1.00  0.00    -0.003 C 
ATOM     17  C   UNL     1      26.765   0.673   4.760  1.00  0.00     0.004 C 
ATOM     18  C   UNL     1      28.728   1.008   6.457  1.00  0.00     0.006 C 
ATOM     19  C   UNL     1      27.473  -0.572   4.069  1.00  0.00     0.009 C 
ATOM     20  C   UNL     1      28.892  -0.479   6.380  1.00  0.00     0.026 C 
ATOM     21  C   UNL     1      26.834  -1.922   3.646  1.00  0.00    -0.012 C 
ATOM     22  C   UNL     1      28.530  -1.159   5.073  1.00  0.00     0.092 C 
ATOM     23  C   UNL     1      27.686  -2.936   3.305  1.00  0.00     0.067 C 
ATOM     24  N   UNL     1      29.583  -1.793   4.334  1.00  0.00    -0.349 N 
ATOM     25  C   UNL     1      29.192  -2.750   3.407  1.00  0.00     0.243 C 
ATOM     26  O   UNL     1      29.983  -3.355   2.703  1.00  0.00    -0.270 OA
ATOM     27  C   UNL     1      27.356   4.275   3.743  1.00  0.00     0.012 C 
ATOM     28  C   UNL     1      27.928  -0.082   2.648  1.00  0.00     0.018 C 
ATOM     29  H   UNL     1      30.551  -1.495   4.369  1.00  0.00     0.164 HD
ENDBRANCH   2   9
TORSDOF 2
ENDMDL
