MODEL 1
REMARK VINA RESULT:    -9.498      0.000      0.000
REMARK INTER + INTRA:          -9.775
REMARK INTER:                  -9.775
REMARK INTRA:                   0.000
REMARK UNBOUND:                 0.000
REMARK SMILES C[C@]12CC[C@H]3[C@@H](CCC4=CC(=O)CC[C@@]43C)[C@@H]1CC[C@H]2O
REMARK SMILES IDX 1 1 2 2 3 3 4 4 5 5 6 6 7 7 8 8 9 9 10 10 11 11 12 12 13 13
REMARK SMILES IDX 14 14 15 15 16 16 17 17 18 18 19 19 20 20 21 21
REMARK H PARENT 21 22
ROOT
ATOM      1  C   UNL     1      28.090   0.736   6.221  1.00  0.00     0.014 C 
ATOM      2  C   UNL     1      27.709   0.357   4.763  1.00  0.00    -0.003 C 
ATOM      3  C   UNL     1      28.450   1.332   3.828  1.00  0.00     0.010 C 
ATOM      4  C   UNL     1      27.610   2.442   3.159  1.00  0.00     0.005 C 
ATOM      5  C   UNL     1      26.175   2.751   3.651  1.00  0.00     0.002 C 
ATOM      6  C   UNL     1      25.559   1.705   4.617  1.00  0.00    -0.003 C 
ATOM      7  C   UNL     1      24.049   1.675   4.370  1.00  0.00     0.008 C 
ATOM      8  C   UNL     1      23.462   3.077   4.213  1.00  0.00     0.032 C 
ATOM      9  C   UNL     1      24.362   4.216   4.617  1.00  0.00    -0.060 C 
ATOM     10  C   UNL     1      23.812   5.325   5.163  1.00  0.00     0.047 C 
ATOM     11  C   UNL     1      24.602   6.559   4.968  1.00  0.00     0.155 C 
ATOM     12  O   UNL     1      24.503   7.493   5.754  1.00  0.00    -0.295 OA
ATOM     13  C   UNL     1      25.363   6.638   3.658  1.00  0.00     0.081 C 
ATOM     14  C   UNL     1      26.128   5.351   3.283  1.00  0.00     0.019 C 
ATOM     15  C   UNL     1      25.868   4.172   4.253  1.00  0.00    -0.008 C 
ATOM     16  C   UNL     1      26.752   4.392   5.519  1.00  0.00     0.016 C 
ATOM     17  C   UNL     1      26.199   0.351   4.457  1.00  0.00     0.001 C 
ATOM     18  C   UNL     1      25.671  -0.767   5.347  1.00  0.00     0.007 C 
ATOM     19  C   UNL     1      26.738  -1.861   5.199  1.00  0.00     0.032 C 
ATOM     20  C   UNL     1      27.991  -1.162   4.606  1.00  0.00     0.120 C 
ENDROOT
BRANCH  20  21
ATOM     21  O   UNL     1      28.143  -1.540   3.240  1.00  0.00    -0.393 OA
ATOM     22  H   UNL     1      27.609  -0.947   2.685  1.00  0.00     0.210 HD
ENDBRANCH  20  21
TORSDOF 1
ENDMDL
MODEL 2
REMARK VINA RESULT:    -9.006      1.380      2.687
REMARK INTER + INTRA:          -9.269
REMARK INTER:                  -9.269
REMARK INTRA:                   0.000
REMARK UNBOUND:                 0.000
REMARK SMILES C[C@]12CC[C@H]3[C@@H](CCC4=CC(=O)CC[C@@]43C)[C@@H]1CC[C@H]2O
REMARK SMILES IDX 1 1 2 2 3 3 4 4 5 5 6 6 7 7 8 8 9 9 10 10 11 11 12 12 13 13
REMARK SMILES IDX 14 14 15 15 16 16 17 17 18 18 19 19 20 20 21 21
REMARK H PARENT 21 22
ROOT
ATOM      1  C   UNL     1      27.183   0.587   2.732  1.00  0.00     0.014 C 
ATOM      2  C   UNL     1      26.625   0.170   4.121  1.00  0.00    -0.003 C 
ATOM      3  C   UNL     1      25.100   0.383   4.086  1.00  0.00     0.010 C 
ATOM      4  C   UNL     1      24.541   1.600   4.857  1.00  0.00     0.005 C 
ATOM      5  C   UNL     1      25.488   2.715   5.364  1.00  0.00     0.002 C 
ATOM      6  C   UNL     1      27.002   2.383   5.313  1.00  0.00    -0.003 C 
ATOM      7  C   UNL     1      27.678   3.103   6.482  1.00  0.00     0.008 C 
ATOM      8  C   UNL     1      27.168   4.534   6.650  1.00  0.00     0.032 C 
ATOM      9  C   UNL     1      26.354   5.081   5.506  1.00  0.00    -0.060 C 
ATOM     10  C   UNL     1      26.439   6.398   5.211  1.00  0.00     0.047 C 
ATOM     11  C   UNL     1      25.240   6.956   4.549  1.00  0.00     0.155 C 
ATOM     12  O   UNL     1      25.329   7.942   3.828  1.00  0.00    -0.295 OA
ATOM     13  C   UNL     1      23.921   6.344   4.981  1.00  0.00     0.081 C 
ATOM     14  C   UNL     1      23.924   4.802   5.053  1.00  0.00     0.019 C 
ATOM     15  C   UNL     1      25.316   4.174   4.798  1.00  0.00    -0.008 C 
ATOM     16  C   UNL     1      25.555   4.154   3.257  1.00  0.00     0.016 C 
ATOM     17  C   UNL     1      27.249   0.897   5.327  1.00  0.00     0.001 C 
ATOM     18  C   UNL     1      28.704   0.443   5.290  1.00  0.00     0.007 C 
ATOM     19  C   UNL     1      28.591  -1.052   4.957  1.00  0.00     0.032 C 
ATOM     20  C   UNL     1      27.155  -1.263   4.405  1.00  0.00     0.120 C 
ENDROOT
BRANCH  20  21
ATOM     21  O   UNL     1      26.368  -1.941   5.381  1.00  0.00    -0.393 OA
ATOM     22  H   UNL     1      25.447  -1.984   5.072  1.00  0.00     0.210 HD
ENDBRANCH  20  21
TORSDOF 1
ENDMDL
MODEL 3
REMARK VINA RESULT:    -8.940      1.038      6.093
REMARK INTER + INTRA:          -9.202
REMARK INTER:                  -9.202
REMARK INTRA:                   0.000
REMARK UNBOUND:                 0.000
REMARK SMILES C[C@]12CC[C@H]3[C@@H](CCC4=CC(=O)CC[C@@]43C)[C@@H]1CC[C@H]2O
REMARK SMILES IDX 1 1 2 2 3 3 4 4 5 5 6 6 7 7 8 8 9 9 10 10 11 11 12 12 13 13
REMARK SMILES IDX 14 14 15 15 16 16 17 17 18 18 19 19 20 20 21 21
REMARK H PARENT 21 22
ROOT
ATOM      1  C   UNL     1      26.557   5.600   3.018  1.00  0.00     0.014 C 
ATOM      2  C   UNL     1      26.110   5.734   4.500  1.00  0.00    -0.003 C 
ATOM      3  C   UNL     1      27.349   5.467   5.377  1.00  0.00     0.010 C 
ATOM      4  C   UNL     1      27.413   4.108   6.110  1.00  0.00     0.005 C 
ATOM      5  C   UNL     1      26.446   2.960   5.730  1.00  0.00     0.002 C 
ATOM      6  C   UNL     1      25.261   3.359   4.812  1.00  0.00    -0.003 C 
ATOM      7  C   UNL     1      24.071   2.468   5.174  1.00  0.00     0.008 C 
ATOM      8  C   UNL     1      24.482   1.010   5.378  1.00  0.00     0.032 C 
ATOM      9  C   UNL     1      25.866   0.647   4.907  1.00  0.00    -0.060 C 
ATOM     10  C   UNL     1      26.086  -0.591   4.406  1.00  0.00     0.047 C 
ATOM     11  C   UNL     1      27.478  -1.069   4.542  1.00  0.00     0.155 C 
ATOM     12  O   UNL     1      27.929  -1.903   3.766  1.00  0.00    -0.295 OA
ATOM     13  C   UNL     1      28.202  -0.601   5.790  1.00  0.00     0.081 C 
ATOM     14  C   UNL     1      28.033   0.901   6.103  1.00  0.00     0.019 C 
ATOM     15  C   UNL     1      27.044   1.623   5.155  1.00  0.00    -0.008 C 
ATOM     16  C   UNL     1      27.799   1.932   3.825  1.00  0.00     0.016 C 
ATOM     17  C   UNL     1      24.939   4.827   4.921  1.00  0.00     0.001 C 
ATOM     18  C   UNL     1      23.782   5.341   4.073  1.00  0.00     0.007 C 
ATOM     19  C   UNL     1      23.956   6.865   4.137  1.00  0.00     0.032 C 
ATOM     20  C   UNL     1      25.406   7.113   4.633  1.00  0.00     0.120 C 
ENDROOT
BRANCH  20  21
ATOM     21  O   UNL     1      25.373   7.569   5.983  1.00  0.00    -0.393 OA
ATOM     22  H   UNL     1      26.285   7.688   6.301  1.00  0.00     0.210 HD
ENDBRANCH  20  21
TORSDOF 1
ENDMDL
MODEL 4
REMARK VINA RESULT:    -8.594      1.209      6.244
REMARK INTER + INTRA:          -8.846
REMARK INTER:                  -8.846
REMARK INTRA:                   0.000
REMARK UNBOUND:                 0.000
REMARK SMILES C[C@]12CC[C@H]3[C@@H](CCC4=CC(=O)CC[C@@]43C)[C@@H]1CC[C@H]2O
REMARK SMILES IDX 1 1 2 2 3 3 4 4 5 5 6 6 7 7 8 8 9 9 10 10 11 11 12 12 13 13
REMARK SMILES IDX 14 14 15 15 16 16 17 17 18 18 19 19 20 20 21 21
REMARK H PARENT 21 22
ROOT
ATOM      1  C   UNL     1      27.305   4.679   5.847  1.00  0.00     0.014 C 
ATOM      2  C   UNL     1      25.809   4.493   5.467  1.00  0.00    -0.003 C 
ATOM      3  C   UNL     1      25.203   3.496   6.473  1.00  0.00     0.010 C 
ATOM      4  C   UNL     1      24.925   2.063   5.964  1.00  0.00     0.005 C 
ATOM      5  C   UNL     1      25.519   1.574   4.621  1.00  0.00     0.002 C 
ATOM      6  C   UNL     1      26.131   2.677   3.718  1.00  0.00    -0.003 C 
ATOM      7  C   UNL     1      25.920   2.258   2.261  1.00  0.00     0.008 C 
ATOM      8  C   UNL     1      26.213   0.774   2.039  1.00  0.00     0.032 C 
ATOM      9  C   UNL     1      26.928   0.071   3.164  1.00  0.00    -0.060 C 
ATOM     10  C   UNL     1      27.800  -0.920   2.869  1.00  0.00     0.047 C 
ATOM     11  C   UNL     1      27.976  -1.921   3.943  1.00  0.00     0.155 C 
ATOM     12  O   UNL     1      29.012  -2.567   4.029  1.00  0.00    -0.295 OA
ATOM     13  C   UNL     1      26.737  -2.203   4.771  1.00  0.00     0.081 C 
ATOM     14  C   UNL     1      25.969  -0.943   5.223  1.00  0.00     0.019 C 
ATOM     15  C   UNL     1      26.535   0.372   4.632  1.00  0.00    -0.008 C 
ATOM     16  C   UNL     1      27.788   0.771   5.472  1.00  0.00     0.016 C 
ATOM     17  C   UNL     1      25.550   4.034   4.020  1.00  0.00     0.001 C 
ATOM     18  C   UNL     1      26.065   5.202   3.189  1.00  0.00     0.007 C 
ATOM     19  C   UNL     1      25.564   6.428   3.967  1.00  0.00     0.032 C 
ATOM     20  C   UNL     1      25.188   5.914   5.383  1.00  0.00     0.120 C 
ENDROOT
BRANCH  20  21
ATOM     21  O   UNL     1      23.768   5.886   5.515  1.00  0.00    -0.393 OA
ATOM     22  H   UNL     1      23.530   6.085   6.436  1.00  0.00     0.210 HD
ENDBRANCH  20  21
TORSDOF 1
ENDMDL
MODEL 5
REMARK VINA RESULT:    -8.190      1.371      2.365
REMARK INTER + INTRA:          -8.430
REMARK INTER:                  -8.430
REMARK INTRA:                   0.000
REMARK UNBOUND:                 0.000
REMARK SMILES C[C@]12CC[C@H]3[C@@H](CCC4=CC(=O)CC[C@@]43C)[C@@H]1CC[C@H]2O
REMARK SMILES IDX 1 1 2 2 3 3 4 4 5 5 6 6 7 7 8 8 9 9 10 10 11 11 12 12 13 13
REMARK SMILES IDX 14 14 15 15 16 16 17 17 18 18 19 19 20 20 21 21
REMARK H PARENT 21 22
ROOT
ATOM      1  C   UNL     1      25.823   0.267   5.444  1.00  0.00     0.014 C 
ATOM      2  C   UNL     1      27.313   0.608   5.162  1.00  0.00    -0.003 C 
ATOM      3  C   UNL     1      27.839   1.401   6.373  1.00  0.00     0.010 C 
ATOM      4  C   UNL     1      28.043   2.921   6.185  1.00  0.00     0.005 C 
ATOM      5  C   UNL     1      27.451   3.651   4.954  1.00  0.00     0.002 C 
ATOM      6  C   UNL     1      26.924   2.732   3.821  1.00  0.00    -0.003 C 
ATOM      7  C   UNL     1      27.142   3.459   2.492  1.00  0.00     0.008 C 
ATOM      8  C   UNL     1      26.767   4.938   2.575  1.00  0.00     0.032 C 
ATOM      9  C   UNL     1      25.988   5.351   3.797  1.00  0.00    -0.060 C 
ATOM     10  C   UNL     1      25.067   6.335   3.688  1.00  0.00     0.047 C 
ATOM     11  C   UNL     1      24.810   7.076   4.941  1.00  0.00     0.155 C 
ATOM     12  O   UNL     1      23.736   7.634   5.125  1.00  0.00    -0.295 OA
ATOM     13  C   UNL     1      26.012   7.242   5.851  1.00  0.00     0.081 C 
ATOM     14  C   UNL     1      26.842   5.957   6.054  1.00  0.00     0.019 C 
ATOM     15  C   UNL     1      26.367   4.768   5.183  1.00  0.00    -0.008 C 
ATOM     16  C   UNL     1      25.121   4.136   5.879  1.00  0.00     0.016 C 
ATOM     17  C   UNL     1      27.577   1.374   3.852  1.00  0.00     0.001 C 
ATOM     18  C   UNL     1      27.149   0.382   2.778  1.00  0.00     0.007 C 
ATOM     19  C   UNL     1      27.702  -0.952   3.299  1.00  0.00     0.032 C 
ATOM     20  C   UNL     1      28.018  -0.729   4.803  1.00  0.00     0.120 C 
ENDROOT
BRANCH  20  21
ATOM     21  O   UNL     1      29.430  -0.655   4.985  1.00  0.00    -0.393 OA
ATOM     22  H   UNL     1      29.678  -1.177   5.767  1.00  0.00     0.210 HD
ENDBRANCH  20  21
TORSDOF 1
ENDMDL
