REMARK SMILES C[C@]12CC[C@H]3[C@@H](CCC4=CC(=O)CC[C@@]43C)[C@@H]1CC[C@H]2O
REMARK SMILES IDX 1 1 2 2 3 3 4 4 5 5 6 6 7 7 8 8 9 9 10 10 11 11 12 12 13 13
REMARK SMILES IDX 14 14 15 15 16 16 17 17 18 18 19 19 20 20 21 21
REMARK H PARENT 21 22
ROOT
ATOM      1  C   UNL     1       2.053   0.656   2.156  1.00  0.00     0.014 C 
ATOM      2  C   UNL     1       2.339   0.901   0.648  1.00  0.00    -0.003 C 
ATOM      3  C   UNL     1       1.778   2.292   0.296  1.00  0.00     0.010 C 
ATOM      4  C   UNL     1       0.470   2.337  -0.525  1.00  0.00     0.005 C 
ATOM      5  C   UNL     1      -0.393   1.064  -0.705  1.00  0.00     0.002 C 
ATOM      6  C   UNL     1       0.280  -0.267  -0.278  1.00  0.00    -0.003 C 
ATOM      7  C   UNL     1      -0.257  -1.374  -1.188  1.00  0.00     0.008 C 
ATOM      8  C   UNL     1      -1.766  -1.262  -1.404  1.00  0.00     0.032 C 
ATOM      9  C   UNL     1      -2.493  -0.317  -0.483  1.00  0.00    -0.060 C 
ATOM     10  C   UNL     1      -3.757  -0.613  -0.103  1.00  0.00     0.047 C 
ATOM     11  C   UNL     1      -4.581   0.562   0.253  1.00  0.00     0.155 C 
ATOM     12  O   UNL     1      -5.524   0.450   1.026  1.00  0.00    -0.295 OA
ATOM     13  C   UNL     1      -4.288   1.820  -0.542  1.00  0.00     0.081 C 
ATOM     14  C   UNL     1      -2.787   2.144  -0.697  1.00  0.00     0.019 C 
ATOM     15  C   UNL     1      -1.855   1.049  -0.123  1.00  0.00    -0.008 C 
ATOM     16  C   UNL     1      -1.790   1.241   1.424  1.00  0.00     0.016 C 
ATOM     17  C   UNL     1       1.783  -0.169  -0.310  1.00  0.00     0.001 C 
ATOM     18  C   UNL     1       2.561  -1.420   0.080  1.00  0.00     0.007 C 
ATOM     19  C   UNL     1       3.987  -0.890   0.288  1.00  0.00     0.032 C 
ATOM     20  C   UNL     1       3.857   0.650   0.433  1.00  0.00     0.120 C 
ENDROOT
BRANCH  20  21
ATOM     21  O   UNL     1       4.341   1.280  -0.751  1.00  0.00    -0.393 OA
ATOM     22  H   UNL     1       3.990   0.811  -1.527  1.00  0.00     0.210 HD
ENDBRANCH  20  21
TORSDOF 1
