REMARK SMILES [NH-]C(=[NH2+])NCCc1ccc(O)cc1
REMARK SMILES IDX 5 1 4 2 3 3 2 4 1 8 6 10 7 11 8 12 13 13 9 14 12 15 10 16
REMARK SMILES IDX 11 17
REMARK H PARENT 3 5 3 6 4 7 1 9 11 18
ROOT
ATOM      1  C   UNL     1       4.541  -0.276   1.186  1.00  0.00     0.120 C 
ENDROOT
BRANCH   1   2
ATOM      2  N   UNL     1       3.084  -0.193   1.212  1.00  0.00    -0.356 N 
ATOM      3  N   UNL     1       1.113  -0.005   0.160  1.00  0.00    -0.370 N 
ATOM      4  C   UNL     1       2.446   0.146   0.063  1.00  0.00     0.185 C 
ATOM      5  H   UNL     1       0.590   0.482  -0.556  1.00  0.00     0.159 HD
ATOM      6  H   UNL     1       0.760   0.226   1.081  1.00  0.00     0.159 HD
ATOM      7  H   UNL     1       2.642  -0.967   1.692  1.00  0.00     0.163 HD
BRANCH   4   8
ATOM      8  N   UNL     1       3.032   0.563  -0.999  1.00  0.00    -0.270 NA
ATOM      9  H   UNL     1       2.348   0.720  -1.738  1.00  0.00     0.191 HD
ENDBRANCH   4   8
ENDBRANCH   1   2
BRANCH   1  10
ATOM     10  C   UNL     1       5.135  -0.756   2.512  1.00  0.00     0.057 C 
BRANCH  10  11
ATOM     11  C   UNL     1       6.654  -0.816   2.541  1.00  0.00    -0.046 A 
ATOM     12  C   UNL     1       7.453  -0.438   1.449  1.00  0.00     0.007 A 
ATOM     13  C   UNL     1       7.295  -1.262   3.708  1.00  0.00     0.007 A 
ATOM     14  C   UNL     1       8.845  -0.496   1.514  1.00  0.00     0.046 A 
ATOM     15  C   UNL     1       8.691  -1.323   3.775  1.00  0.00     0.046 A 
ATOM     16  C   UNL     1       9.453  -0.941   2.679  1.00  0.00     0.115 A 
BRANCH  16  17
ATOM     17  O   UNL     1      10.811  -1.008   2.780  1.00  0.00    -0.508 OA
ATOM     18  H   UNL     1      11.197  -0.704   1.942  1.00  0.00     0.293 HD
ENDBRANCH  16  17
ENDBRANCH  10  11
ENDBRANCH   1  10
TORSDOF 5
