MODEL 1
REMARK VINA RESULT:    -5.383      0.000      0.000
REMARK INTER + INTRA:          -5.759
REMARK INTER:                  -7.271
REMARK INTRA:                   1.512
REMARK UNBOUND:                 1.512
REMARK SMILES O=S(=O)(NC1CCNCC1)c1cc(S(=O)(=O)c2ccccc2)ccc1C(F)(F)F
REMARK SMILES IDX 1 1 2 2 3 3 4 4 5 6 6 7 10 8 7 9 9 10 8 11 11 13 12 14 25 15
REMARK SMILES IDX 13 16 24 17 23 18 26 19 27 20 28 21 29 22 14 23 15 24 16 25
REMARK SMILES IDX 17 26 18 27 22 28 19 29 21 30 20 31
REMARK H PARENT 4 5 8 12
ROOT
ATOM      1  O   UNL     1      27.473   3.496   6.503  1.00  0.00    -0.207 OA
ATOM      2  S   UNL     1      26.031   3.540   6.514  1.00  0.00     0.241 S 
ATOM      3  O   UNL     1      25.247   3.454   7.727  1.00  0.00    -0.207 OA
ENDROOT
BRANCH   2   4
ATOM      4  N   UNL     1      25.536   4.969   5.778  1.00  0.00    -0.208 NA
ATOM      5  H   UNL     1      24.801   5.415   6.330  1.00  0.00     0.141 HD
BRANCH   4   6
ATOM      6  C   UNL     1      26.486   5.857   5.069  1.00  0.00     0.072 C 
ATOM      7  C   UNL     1      26.676   7.219   5.744  1.00  0.00     0.035 C 
ATOM      8  C   UNL     1      25.990   6.072   3.628  1.00  0.00     0.035 C 
ATOM      9  C   UNL     1      25.449   8.111   5.615  1.00  0.00     0.082 C 
ATOM     10  C   UNL     1      24.828   7.067   3.535  1.00  0.00     0.082 C 
ATOM     11  N   UNL     1      25.113   8.331   4.210  1.00  0.00    -0.317 NA
ATOM     12  H   UNL     1      25.896   8.798   3.748  1.00  0.00     0.122 HD
ENDBRANCH   4   6
ENDBRANCH   2   4
BRANCH   2  13
ATOM     13  C   UNL     1      25.491   2.189   5.490  1.00  0.00     0.096 A 
ATOM     14  C   UNL     1      26.256   1.014   5.403  1.00  0.00     0.043 A 
ATOM     15  C   UNL     1      24.246   2.292   4.831  1.00  0.00     0.076 A 
ATOM     16  C   UNL     1      25.755  -0.078   4.681  1.00  0.00     0.073 A 
ATOM     17  C   UNL     1      23.762   1.160   4.142  1.00  0.00     0.016 A 
ATOM     18  C   UNL     1      24.501  -0.019   4.074  1.00  0.00     0.021 A 
BRANCH  15  19
ATOM     19  C   UNL     1      23.367   3.530   4.792  1.00  0.00     0.417 C 
ATOM     20  F   UNL     1      23.242   4.245   5.932  1.00  0.00    -0.166 F 
ATOM     21  F   UNL     1      23.838   4.424   3.872  1.00  0.00    -0.166 F 
ATOM     22  F   UNL     1      22.101   3.233   4.386  1.00  0.00    -0.166 F 
ENDBRANCH  15  19
BRANCH  16  23
ATOM     23  S   UNL     1      26.661  -1.615   4.638  1.00  0.00     0.206 S 
ATOM     24  O   UNL     1      27.040  -1.907   6.010  1.00  0.00    -0.219 OA
ATOM     25  O   UNL     1      25.865  -2.568   3.884  1.00  0.00    -0.219 OA
BRANCH  23  26
ATOM     26  C   UNL     1      28.152  -1.315   3.719  1.00  0.00     0.072 A 
ATOM     27  C   UNL     1      28.301  -0.110   3.025  1.00  0.00     0.021 A 
ATOM     28  C   UNL     1      29.191  -2.251   3.753  1.00  0.00     0.021 A 
ATOM     29  C   UNL     1      29.486   0.144   2.337  1.00  0.00     0.001 A 
ATOM     30  C   UNL     1      30.375  -1.988   3.062  1.00  0.00     0.001 A 
ATOM     31  C   UNL     1      30.520  -0.794   2.353  1.00  0.00     0.000 A 
ENDBRANCH  23  26
ENDBRANCH  16  23
ENDBRANCH   2  13
TORSDOF 6
ENDMDL
MODEL 2
REMARK VINA RESULT:    -5.094      2.825      4.401
REMARK INTER + INTRA:          -5.368
REMARK INTER:                  -5.964
REMARK INTRA:                   0.596
REMARK UNBOUND:                 1.512
REMARK SMILES O=S(=O)(NC1CCNCC1)c1cc(S(=O)(=O)c2ccccc2)ccc1C(F)(F)F
REMARK SMILES IDX 1 1 2 2 3 3 4 4 5 6 6 7 10 8 7 9 9 10 8 11 11 13 12 14 25 15
REMARK SMILES IDX 13 16 24 17 23 18 26 19 27 20 28 21 29 22 14 23 15 24 16 25
REMARK SMILES IDX 17 26 18 27 22 28 19 29 21 30 20 31
REMARK H PARENT 4 5 8 12
ROOT
ATOM      1  O   UNL     1      27.516   6.185   5.195  1.00  0.00    -0.207 OA
ATOM      2  S   UNL     1      27.390   5.288   4.073  1.00  0.00     0.241 S 
ATOM      3  O   UNL     1      27.571   5.709   2.700  1.00  0.00    -0.207 OA
ENDROOT
BRANCH   2   4
ATOM      4  N   UNL     1      28.470   4.017   4.283  1.00  0.00    -0.208 NA
ATOM      5  H   UNL     1      29.091   3.942   3.475  1.00  0.00     0.141 HD
BRANCH   4   6
ATOM      6  C   UNL     1      29.041   3.682   5.609  1.00  0.00     0.072 C 
ATOM      7  C   UNL     1      29.926   2.431   5.599  1.00  0.00     0.035 C 
ATOM      8  C   UNL     1      27.891   3.480   6.612  1.00  0.00     0.035 C 
ATOM      9  C   UNL     1      29.124   1.151   5.408  1.00  0.00     0.082 C 
ATOM     10  C   UNL     1      27.189   2.127   6.457  1.00  0.00     0.082 C 
ATOM     11  N   UNL     1      28.122   1.003   6.461  1.00  0.00    -0.317 NA
ATOM     12  H   UNL     1      28.593   0.952   7.366  1.00  0.00     0.122 HD
ENDBRANCH   4   6
ENDBRANCH   2   4
BRANCH   2  13
ATOM     13  C   UNL     1      25.744   4.619   4.163  1.00  0.00     0.096 A 
ATOM     14  C   UNL     1      25.525   3.245   3.968  1.00  0.00     0.043 A 
ATOM     15  C   UNL     1      24.679   5.479   4.508  1.00  0.00     0.076 A 
ATOM     16  C   UNL     1      24.237   2.723   4.155  1.00  0.00     0.073 A 
ATOM     17  C   UNL     1      23.404   4.910   4.719  1.00  0.00     0.016 A 
ATOM     18  C   UNL     1      23.184   3.544   4.556  1.00  0.00     0.021 A 
BRANCH  15  19
ATOM     19  C   UNL     1      24.777   6.986   4.673  1.00  0.00     0.417 C 
ATOM     20  F   UNL     1      25.275   7.697   3.637  1.00  0.00    -0.166 F 
ATOM     21  F   UNL     1      23.543   7.525   4.902  1.00  0.00    -0.166 F 
ATOM     22  F   UNL     1      25.522   7.323   5.762  1.00  0.00    -0.166 F 
ENDBRANCH  15  19
BRANCH  16  23
ATOM     23  S   UNL     1      23.954   0.966   4.011  1.00  0.00     0.206 S 
ATOM     24  O   UNL     1      23.468   0.521   5.306  1.00  0.00    -0.219 OA
ATOM     25  O   UNL     1      23.152   0.753   2.819  1.00  0.00    -0.219 OA
BRANCH  23  26
ATOM     26  C   UNL     1      25.536   0.205   3.737  1.00  0.00     0.072 A 
ATOM     27  C   UNL     1      25.894  -0.924   4.480  1.00  0.00     0.021 A 
ATOM     28  C   UNL     1      26.379   0.694   2.733  1.00  0.00     0.021 A 
ATOM     29  C   UNL     1      27.117  -1.546   4.238  1.00  0.00     0.001 A 
ATOM     30  C   UNL     1      27.602   0.064   2.496  1.00  0.00     0.001 A 
ATOM     31  C   UNL     1      27.970  -1.052   3.250  1.00  0.00     0.000 A 
ENDBRANCH  23  26
ENDBRANCH  16  23
ENDBRANCH   2  13
TORSDOF 6
ENDMDL
MODEL 3
REMARK VINA RESULT:    -4.987      3.158      6.051
REMARK INTER + INTRA:          -5.224
REMARK INTER:                  -5.192
REMARK INTRA:                  -0.032
REMARK UNBOUND:                 1.512
REMARK SMILES O=S(=O)(NC1CCNCC1)c1cc(S(=O)(=O)c2ccccc2)ccc1C(F)(F)F
REMARK SMILES IDX 1 1 2 2 3 3 4 4 5 6 6 7 10 8 7 9 9 10 8 11 11 13 12 14 25 15
REMARK SMILES IDX 13 16 24 17 23 18 26 19 27 20 28 21 29 22 14 23 15 24 16 25
REMARK SMILES IDX 17 26 18 27 22 28 19 29 21 30 20 31
REMARK H PARENT 4 5 8 12
ROOT
ATOM      1  O   UNL     1      24.374  -0.570   3.862  1.00  0.00    -0.207 OA
ATOM      2  S   UNL     1      25.106   0.499   3.228  1.00  0.00     0.241 S 
ATOM      3  O   UNL     1      25.513   0.465   1.840  1.00  0.00    -0.207 OA
ENDROOT
BRANCH   2   4
ATOM      4  N   UNL     1      24.215   1.917   3.383  1.00  0.00    -0.208 NA
ATOM      5  H   UNL     1      24.039   2.328   2.464  1.00  0.00     0.141 HD
BRANCH   4   6
ATOM      6  C   UNL     1      23.157   2.073   4.409  1.00  0.00     0.072 C 
ATOM      7  C   UNL     1      22.267   3.301   4.192  1.00  0.00     0.035 C 
ATOM      8  C   UNL     1      23.816   2.165   5.797  1.00  0.00     0.035 C 
ATOM      9  C   UNL     1      22.996   4.608   4.471  1.00  0.00     0.082 C 
ATOM     10  C   UNL     1      24.436   3.538   6.078  1.00  0.00     0.082 C 
ATOM     11  N   UNL     1      23.503   4.638   5.841  1.00  0.00    -0.317 NA
ATOM     12  H   UNL     1      22.717   4.566   6.490  1.00  0.00     0.122 HD
ENDBRANCH   4   6
ENDBRANCH   2   4
BRANCH   2  13
ATOM     13  C   UNL     1      26.602   0.695   4.170  1.00  0.00     0.096 A 
ATOM     14  C   UNL     1      27.021   1.972   4.579  1.00  0.00     0.043 A 
ATOM     15  C   UNL     1      27.315  -0.459   4.561  1.00  0.00     0.076 A 
ATOM     16  C   UNL     1      28.141   2.091   5.415  1.00  0.00     0.073 A 
ATOM     17  C   UNL     1      28.416  -0.300   5.429  1.00  0.00     0.016 A 
ATOM     18  C   UNL     1      28.822   0.960   5.863  1.00  0.00     0.021 A 
BRANCH  15  19
ATOM     19  C   UNL     1      27.003  -1.881   4.125  1.00  0.00     0.417 C 
ATOM     20  F   UNL     1      26.691  -2.082   2.826  1.00  0.00    -0.166 F 
ATOM     21  F   UNL     1      28.072  -2.699   4.356  1.00  0.00    -0.166 F 
ATOM     22  F   UNL     1      25.981  -2.415   4.850  1.00  0.00    -0.166 F 
ENDBRANCH  15  19
BRANCH  16  23
ATOM     23  S   UNL     1      28.634   3.693   6.028  1.00  0.00     0.206 S 
ATOM     24  O   UNL     1      28.323   3.703   7.447  1.00  0.00    -0.219 OA
ATOM     25  O   UNL     1      29.995   3.930   5.579  1.00  0.00    -0.219 OA
BRANCH  23  26
ATOM     26  C   UNL     1      27.592   4.896   5.238  1.00  0.00     0.072 A 
ATOM     27  C   UNL     1      27.193   4.697   3.913  1.00  0.00     0.021 A 
ATOM     28  C   UNL     1      27.121   5.994   5.967  1.00  0.00     0.021 A 
ATOM     29  C   UNL     1      26.343   5.619   3.305  1.00  0.00     0.001 A 
ATOM     30  C   UNL     1      26.269   6.912   5.351  1.00  0.00     0.001 A 
ATOM     31  C   UNL     1      25.884   6.725   4.021  1.00  0.00     0.000 A 
ENDBRANCH  23  26
ENDBRANCH  16  23
ENDBRANCH   2  13
TORSDOF 6
ENDMDL
MODEL 4
REMARK VINA RESULT:    -4.961      1.437      1.768
REMARK INTER + INTRA:          -5.190
REMARK INTER:                  -6.592
REMARK INTRA:                   1.402
REMARK UNBOUND:                 1.512
REMARK SMILES O=S(=O)(NC1CCNCC1)c1cc(S(=O)(=O)c2ccccc2)ccc1C(F)(F)F
REMARK SMILES IDX 1 1 2 2 3 3 4 4 5 6 6 7 10 8 7 9 9 10 8 11 11 13 12 14 25 15
REMARK SMILES IDX 13 16 24 17 23 18 26 19 27 20 28 21 29 22 14 23 15 24 16 25
REMARK SMILES IDX 17 26 18 27 22 28 19 29 21 30 20 31
REMARK H PARENT 4 5 8 12
ROOT
ATOM      1  O   UNL     1      26.761   3.463   6.917  1.00  0.00    -0.207 OA
ATOM      2  S   UNL     1      25.389   3.657   6.516  1.00  0.00     0.241 S 
ATOM      3  O   UNL     1      24.271   3.497   7.420  1.00  0.00    -0.207 OA
ENDROOT
BRANCH   2   4
ATOM      4  N   UNL     1      25.230   5.215   5.902  1.00  0.00    -0.208 NA
ATOM      5  H   UNL     1      24.802   5.828   6.599  1.00  0.00     0.141 HD
BRANCH   4   6
ATOM      6  C   UNL     1      26.245   5.813   5.004  1.00  0.00     0.072 C 
ATOM      7  C   UNL     1      26.657   7.234   5.402  1.00  0.00     0.035 C 
ATOM      8  C   UNL     1      25.694   5.830   3.567  1.00  0.00     0.035 C 
ATOM      9  C   UNL     1      25.556   8.254   5.149  1.00  0.00     0.082 C 
ATOM     10  C   UNL     1      24.674   6.947   3.328  1.00  0.00     0.082 C 
ATOM     11  N   UNL     1      25.167   8.260   3.741  1.00  0.00    -0.317 NA
ATOM     12  H   UNL     1      25.976   8.516   3.172  1.00  0.00     0.122 HD
ENDBRANCH   4   6
ENDBRANCH   2   4
BRANCH   2  13
ATOM     13  C   UNL     1      25.102   2.518   5.180  1.00  0.00     0.096 A 
ATOM     14  C   UNL     1      26.040   1.515   4.888  1.00  0.00     0.043 A 
ATOM     15  C   UNL     1      23.881   2.594   4.474  1.00  0.00     0.076 A 
ATOM     16  C   UNL     1      25.740   0.560   3.906  1.00  0.00     0.073 A 
ATOM     17  C   UNL     1      23.602   1.595   3.516  1.00  0.00     0.016 A 
ATOM     18  C   UNL     1      24.516   0.580   3.240  1.00  0.00     0.021 A 
BRANCH  15  19
ATOM     19  C   UNL     1      22.824   3.671   4.649  1.00  0.00     0.417 C 
ATOM     20  F   UNL     1      22.907   4.455   5.746  1.00  0.00    -0.166 F 
ATOM     21  F   UNL     1      22.848   4.542   3.597  1.00  0.00    -0.166 F 
ATOM     22  F   UNL     1      21.568   3.145   4.649  1.00  0.00    -0.166 F 
ENDBRANCH  15  19
BRANCH  16  23
ATOM     23  S   UNL     1      26.873  -0.782   3.586  1.00  0.00     0.206 S 
ATOM     24  O   UNL     1      26.154  -2.008   3.888  1.00  0.00    -0.219 OA
ATOM     25  O   UNL     1      27.431  -0.572   2.262  1.00  0.00    -0.219 OA
BRANCH  23  26
ATOM     26  C   UNL     1      28.201  -0.632   4.758  1.00  0.00     0.072 A 
ATOM     27  C   UNL     1      29.519  -0.819   4.331  1.00  0.00     0.021 A 
ATOM     28  C   UNL     1      27.925  -0.260   6.078  1.00  0.00     0.021 A 
ATOM     29  C   UNL     1      30.564  -0.663   5.239  1.00  0.00     0.001 A 
ATOM     30  C   UNL     1      28.978  -0.104   6.981  1.00  0.00     0.001 A 
ATOM     31  C   UNL     1      30.295  -0.309   6.562  1.00  0.00     0.000 A 
ENDBRANCH  23  26
ENDBRANCH  16  23
ENDBRANCH   2  13
TORSDOF 6
ENDMDL
MODEL 5
REMARK VINA RESULT:    -4.913      1.770      2.229
REMARK INTER + INTRA:          -5.125
REMARK INTER:                  -5.781
REMARK INTRA:                   0.656
REMARK UNBOUND:                 1.512
REMARK SMILES O=S(=O)(NC1CCNCC1)c1cc(S(=O)(=O)c2ccccc2)ccc1C(F)(F)F
REMARK SMILES IDX 1 1 2 2 3 3 4 4 5 6 6 7 10 8 7 9 9 10 8 11 11 13 12 14 25 15
REMARK SMILES IDX 13 16 24 17 23 18 26 19 27 20 28 21 29 22 14 23 15 24 16 25
REMARK SMILES IDX 17 26 18 27 22 28 19 29 21 30 20 31
REMARK H PARENT 4 5 8 12
ROOT
ATOM      1  O   UNL     1      25.703   3.811   7.812  1.00  0.00    -0.207 OA
ATOM      2  S   UNL     1      24.764   3.829   6.717  1.00  0.00     0.241 S 
ATOM      3  O   UNL     1      23.383   3.418   6.853  1.00  0.00    -0.207 OA
ENDROOT
BRANCH   2   4
ATOM      4  N   UNL     1      24.693   5.392   6.103  1.00  0.00    -0.208 NA
ATOM      5  H   UNL     1      24.153   5.995   6.727  1.00  0.00     0.141 HD
BRANCH   4   6
ATOM      6  C   UNL     1      25.835   6.008   5.387  1.00  0.00     0.072 C 
ATOM      7  C   UNL     1      26.037   7.491   5.713  1.00  0.00     0.035 C 
ATOM      8  C   UNL     1      25.621   5.847   3.871  1.00  0.00     0.035 C 
ATOM      9  C   UNL     1      24.945   8.373   5.122  1.00  0.00     0.082 C 
ATOM     10  C   UNL     1      24.598   6.835   3.301  1.00  0.00     0.082 C 
ATOM     11  N   UNL     1      24.883   8.220   3.670  1.00  0.00    -0.317 NA
ATOM     12  H   UNL     1      25.777   8.505   3.265  1.00  0.00     0.122 HD
ENDBRANCH   4   6
ENDBRANCH   2   4
BRANCH   2  13
ATOM     13  C   UNL     1      25.460   2.784   5.457  1.00  0.00     0.096 A 
ATOM     14  C   UNL     1      26.791   2.346   5.553  1.00  0.00     0.043 A 
ATOM     15  C   UNL     1      24.628   2.343   4.404  1.00  0.00     0.076 A 
ATOM     16  C   UNL     1      27.283   1.433   4.609  1.00  0.00     0.073 A 
ATOM     17  C   UNL     1      25.150   1.399   3.493  1.00  0.00     0.016 A 
ATOM     18  C   UNL     1      26.460   0.938   3.597  1.00  0.00     0.021 A 
BRANCH  15  19
ATOM     19  C   UNL     1      23.202   2.801   4.154  1.00  0.00     0.417 C 
ATOM     20  F   UNL     1      22.962   4.131   4.156  1.00  0.00    -0.166 F 
ATOM     21  F   UNL     1      22.767   2.372   2.932  1.00  0.00    -0.166 F 
ATOM     22  F   UNL     1      22.335   2.256   5.053  1.00  0.00    -0.166 F 
ENDBRANCH  15  19
BRANCH  16  23
ATOM     23  S   UNL     1      28.938   0.786   4.767  1.00  0.00     0.206 S 
ATOM     24  O   UNL     1      29.765   1.542   3.842  1.00  0.00    -0.219 OA
ATOM     25  O   UNL     1      29.263   0.764   6.182  1.00  0.00    -0.219 OA
BRANCH  23  26
ATOM     26  C   UNL     1      28.896  -0.898   4.200  1.00  0.00     0.072 A 
ATOM     27  C   UNL     1      30.080  -1.513   3.782  1.00  0.00     0.021 A 
ATOM     28  C   UNL     1      27.696  -1.616   4.242  1.00  0.00     0.021 A 
ATOM     29  C   UNL     1      30.055  -2.846   3.376  1.00  0.00     0.001 A 
ATOM     30  C   UNL     1      27.680  -2.951   3.834  1.00  0.00     0.001 A 
ATOM     31  C   UNL     1      28.858  -3.562   3.398  1.00  0.00     0.000 A 
ENDBRANCH  23  26
ENDBRANCH  16  23
ENDBRANCH   2  13
TORSDOF 6
ENDMDL
MODEL 6
REMARK VINA RESULT:    -4.826      2.664      4.314
REMARK INTER + INTRA:          -5.007
REMARK INTER:                  -7.079
REMARK INTRA:                   2.072
REMARK UNBOUND:                 1.512
REMARK SMILES O=S(=O)(NC1CCNCC1)c1cc(S(=O)(=O)c2ccccc2)ccc1C(F)(F)F
REMARK SMILES IDX 1 1 2 2 3 3 4 4 5 6 6 7 10 8 7 9 9 10 8 11 11 13 12 14 25 15
REMARK SMILES IDX 13 16 24 17 23 18 26 19 27 20 28 21 29 22 14 23 15 24 16 25
REMARK SMILES IDX 17 26 18 27 22 28 19 29 21 30 20 31
REMARK H PARENT 4 5 8 12
ROOT
ATOM      1  O   UNL     1      24.393   4.739   5.387  1.00  0.00    -0.207 OA
ATOM      2  S   UNL     1      24.678   3.543   6.141  1.00  0.00     0.241 S 
ATOM      3  O   UNL     1      24.404   3.415   7.556  1.00  0.00    -0.207 OA
ENDROOT
BRANCH   2   4
ATOM      4  N   UNL     1      23.865   2.257   5.424  1.00  0.00    -0.208 NA
ATOM      5  H   UNL     1      23.150   1.892   6.058  1.00  0.00     0.141 HD
BRANCH   4   6
ATOM      6  C   UNL     1      23.564   2.227   3.974  1.00  0.00     0.072 C 
ATOM      7  C   UNL     1      23.641   0.826   3.359  1.00  0.00     0.035 C 
ATOM      8  C   UNL     1      24.547   3.157   3.240  1.00  0.00     0.035 C 
ATOM      9  C   UNL     1      25.070   0.306   3.267  1.00  0.00     0.082 C 
ATOM     10  C   UNL     1      25.940   2.544   3.069  1.00  0.00     0.082 C 
ATOM     11  N   UNL     1      25.901   1.209   2.473  1.00  0.00    -0.317 NA
ATOM     12  H   UNL     1      25.521   1.268   1.527  1.00  0.00     0.122 HD
ENDBRANCH   4   6
ENDBRANCH   2   4
BRANCH   2  13
ATOM     13  C   UNL     1      26.422   3.250   5.955  1.00  0.00     0.096 A 
ATOM     14  C   UNL     1      26.958   1.974   6.197  1.00  0.00     0.043 A 
ATOM     15  C   UNL     1      27.242   4.300   5.486  1.00  0.00     0.076 A 
ATOM     16  C   UNL     1      28.315   1.738   5.935  1.00  0.00     0.073 A 
ATOM     17  C   UNL     1      28.595   4.014   5.203  1.00  0.00     0.016 A 
ATOM     18  C   UNL     1      29.128   2.745   5.414  1.00  0.00     0.021 A 
BRANCH  15  19
ATOM     19  C   UNL     1      26.795   5.734   5.257  1.00  0.00     0.417 C 
ATOM     20  F   UNL     1      25.976   6.288   6.178  1.00  0.00    -0.166 F 
ATOM     21  F   UNL     1      27.875   6.570   5.204  1.00  0.00    -0.166 F 
ATOM     22  F   UNL     1      26.172   5.879   4.054  1.00  0.00    -0.166 F 
ENDBRANCH  15  19
BRANCH  16  23
ATOM     23  S   UNL     1      28.996   0.101   6.141  1.00  0.00     0.206 S 
ATOM     24  O   UNL     1      30.351   0.151   5.620  1.00  0.00    -0.219 OA
ATOM     25  O   UNL     1      28.760  -0.297   7.518  1.00  0.00    -0.219 OA
BRANCH  23  26
ATOM     26  C   UNL     1      28.056  -0.988   5.099  1.00  0.00     0.072 A 
ATOM     27  C   UNL     1      28.486  -1.228   3.790  1.00  0.00     0.021 A 
ATOM     28  C   UNL     1      26.937  -1.652   5.614  1.00  0.00     0.021 A 
ATOM     29  C   UNL     1      27.773  -2.114   2.984  1.00  0.00     0.001 A 
ATOM     30  C   UNL     1      26.230  -2.538   4.801  1.00  0.00     0.001 A 
ATOM     31  C   UNL     1      26.645  -2.765   3.487  1.00  0.00     0.000 A 
ENDBRANCH  23  26
ENDBRANCH  16  23
ENDBRANCH   2  13
TORSDOF 6
ENDMDL
MODEL 7
REMARK VINA RESULT:    -4.413      2.469      3.916
REMARK INTER + INTRA:          -4.449
REMARK INTER:                  -4.595
REMARK INTRA:                   0.146
REMARK UNBOUND:                 1.512
REMARK SMILES O=S(=O)(NC1CCNCC1)c1cc(S(=O)(=O)c2ccccc2)ccc1C(F)(F)F
REMARK SMILES IDX 1 1 2 2 3 3 4 4 5 6 6 7 10 8 7 9 9 10 8 11 11 13 12 14 25 15
REMARK SMILES IDX 13 16 24 17 23 18 26 19 27 20 28 21 29 22 14 23 15 24 16 25
REMARK SMILES IDX 17 26 18 27 22 28 19 29 21 30 20 31
REMARK H PARENT 4 5 8 12
ROOT
ATOM      1  O   UNL     1      26.990   5.863   6.546  1.00  0.00    -0.207 OA
ATOM      2  S   UNL     1      26.314   4.589   6.552  1.00  0.00     0.241 S 
ATOM      3  O   UNL     1      26.038   3.846   7.763  1.00  0.00    -0.207 OA
ENDROOT
BRANCH   2   4
ATOM      4  N   UNL     1      24.817   4.778   5.809  1.00  0.00    -0.208 NA
ATOM      5  H   UNL     1      24.937   5.118   4.852  1.00  0.00     0.141 HD
BRANCH   4   6
ATOM      6  C   UNL     1      23.691   3.849   6.063  1.00  0.00     0.072 C 
ATOM      7  C   UNL     1      24.108   2.376   6.111  1.00  0.00     0.035 C 
ATOM      8  C   UNL     1      22.629   4.039   4.966  1.00  0.00     0.035 C 
ATOM      9  C   UNL     1      24.496   1.834   4.742  1.00  0.00     0.082 C 
ATOM     10  C   UNL     1      23.011   3.377   3.638  1.00  0.00     0.082 C 
ATOM     11  N   UNL     1      23.390   1.974   3.796  1.00  0.00    -0.317 NA
ATOM     12  H   UNL     1      22.590   1.439   4.136  1.00  0.00     0.122 HD
ENDBRANCH   4   6
ENDBRANCH   2   4
BRANCH   2  13
ATOM     13  C   UNL     1      27.291   3.509   5.531  1.00  0.00     0.096 A 
ATOM     14  C   UNL     1      27.776   2.294   6.043  1.00  0.00     0.043 A 
ATOM     15  C   UNL     1      27.503   3.859   4.180  1.00  0.00     0.076 A 
ATOM     16  C   UNL     1      28.447   1.408   5.188  1.00  0.00     0.073 A 
ATOM     17  C   UNL     1      28.154   2.927   3.343  1.00  0.00     0.016 A 
ATOM     18  C   UNL     1      28.613   1.707   3.836  1.00  0.00     0.021 A 
BRANCH  15  19
ATOM     19  C   UNL     1      27.093   5.170   3.532  1.00  0.00     0.417 C 
ATOM     20  F   UNL     1      27.401   6.314   4.184  1.00  0.00    -0.166 F 
ATOM     21  F   UNL     1      27.677   5.303   2.304  1.00  0.00    -0.166 F 
ATOM     22  F   UNL     1      25.752   5.215   3.296  1.00  0.00    -0.166 F 
ENDBRANCH  15  19
BRANCH  16  23
ATOM     23  S   UNL     1      28.985  -0.183   5.791  1.00  0.00     0.206 S 
ATOM     24  O   UNL     1      30.358  -0.348   5.346  1.00  0.00    -0.219 OA
ATOM     25  O   UNL     1      28.666  -0.242   7.206  1.00  0.00    -0.219 OA
BRANCH  23  26
ATOM     26  C   UNL     1      27.999  -1.412   4.968  1.00  0.00     0.072 A 
ATOM     27  C   UNL     1      26.739  -1.738   5.478  1.00  0.00     0.021 A 
ATOM     28  C   UNL     1      28.459  -1.991   3.780  1.00  0.00     0.021 A 
ATOM     29  C   UNL     1      25.948  -2.672   4.812  1.00  0.00     0.001 A 
ATOM     30  C   UNL     1      27.660  -2.925   3.118  1.00  0.00     0.001 A 
ATOM     31  C   UNL     1      26.408  -3.266   3.635  1.00  0.00     0.000 A 
ENDBRANCH  23  26
ENDBRANCH  16  23
ENDBRANCH   2  13
TORSDOF 6
ENDMDL
MODEL 8
REMARK VINA RESULT:    -4.318      3.614      7.038
REMARK INTER + INTRA:          -4.320
REMARK INTER:                  -6.013
REMARK INTRA:                   1.693
REMARK UNBOUND:                 1.512
REMARK SMILES O=S(=O)(NC1CCNCC1)c1cc(S(=O)(=O)c2ccccc2)ccc1C(F)(F)F
REMARK SMILES IDX 1 1 2 2 3 3 4 4 5 6 6 7 10 8 7 9 9 10 8 11 11 13 12 14 25 15
REMARK SMILES IDX 13 16 24 17 23 18 26 19 27 20 28 21 29 22 14 23 15 24 16 25
REMARK SMILES IDX 17 26 18 27 22 28 19 29 21 30 20 31
REMARK H PARENT 4 5 8 12
ROOT
ATOM      1  O   UNL     1      28.144  -1.038   4.109  1.00  0.00    -0.207 OA
ATOM      2  S   UNL     1      28.258   0.206   3.389  1.00  0.00     0.241 S 
ATOM      3  O   UNL     1      29.358   0.507   2.499  1.00  0.00    -0.207 OA
ENDROOT
BRANCH   2   4
ATOM      4  N   UNL     1      26.876   0.407   2.452  1.00  0.00    -0.208 NA
ATOM      5  H   UNL     1      27.127   0.506   1.467  1.00  0.00     0.141 HD
BRANCH   4   6
ATOM      6  C   UNL     1      25.608  -0.294   2.762  1.00  0.00     0.072 C 
ATOM      7  C   UNL     1      24.358   0.468   2.311  1.00  0.00     0.035 C 
ATOM      8  C   UNL     1      25.530  -0.542   4.279  1.00  0.00     0.035 C 
ATOM      9  C   UNL     1      24.097   1.711   3.152  1.00  0.00     0.082 C 
ATOM     10  C   UNL     1      25.151   0.712   5.073  1.00  0.00     0.082 C 
ATOM     11  N   UNL     1      23.945   1.361   4.562  1.00  0.00    -0.317 NA
ATOM     12  H   UNL     1      23.147   0.732   4.667  1.00  0.00     0.122 HD
ENDBRANCH   4   6
ENDBRANCH   2   4
BRANCH   2  13
ATOM     13  C   UNL     1      28.265   1.488   4.622  1.00  0.00     0.096 A 
ATOM     14  C   UNL     1      27.970   2.815   4.269  1.00  0.00     0.043 A 
ATOM     15  C   UNL     1      28.496   1.133   5.970  1.00  0.00     0.076 A 
ATOM     16  C   UNL     1      27.871   3.787   5.275  1.00  0.00     0.073 A 
ATOM     17  C   UNL     1      28.355   2.133   6.956  1.00  0.00     0.016 A 
ATOM     18  C   UNL     1      28.035   3.446   6.617  1.00  0.00     0.021 A 
BRANCH  15  19
ATOM     19  C   UNL     1      28.893  -0.247   6.464  1.00  0.00     0.417 C 
ATOM     20  F   UNL     1      27.996  -1.247   6.314  1.00  0.00    -0.166 F 
ATOM     21  F   UNL     1      30.014  -0.686   5.816  1.00  0.00    -0.166 F 
ATOM     22  F   UNL     1      29.228  -0.230   7.784  1.00  0.00    -0.166 F 
ENDBRANCH  15  19
BRANCH  16  23
ATOM     23  S   UNL     1      27.400   5.458   4.862  1.00  0.00     0.206 S 
ATOM     24  O   UNL     1      27.814   6.290   5.980  1.00  0.00    -0.219 OA
ATOM     25  O   UNL     1      27.900   5.732   3.527  1.00  0.00    -0.219 OA
BRANCH  23  26
ATOM     26  C   UNL     1      25.625   5.496   4.790  1.00  0.00     0.072 A 
ATOM     27  C   UNL     1      24.990   6.469   4.012  1.00  0.00     0.021 A 
ATOM     28  C   UNL     1      24.881   4.514   5.451  1.00  0.00     0.021 A 
ATOM     29  C   UNL     1      23.599   6.475   3.921  1.00  0.00     0.001 A 
ATOM     30  C   UNL     1      23.488   4.526   5.354  1.00  0.00     0.001 A 
ATOM     31  C   UNL     1      22.849   5.508   4.593  1.00  0.00     0.000 A 
ENDBRANCH  23  26
ENDBRANCH  16  23
ENDBRANCH   2  13
TORSDOF 6
ENDMDL
MODEL 9
REMARK VINA RESULT:    -4.065      2.472      3.311
REMARK INTER + INTRA:          -3.978
REMARK INTER:                  -4.148
REMARK INTRA:                   0.169
REMARK UNBOUND:                 1.512
REMARK SMILES O=S(=O)(NC1CCNCC1)c1cc(S(=O)(=O)c2ccccc2)ccc1C(F)(F)F
REMARK SMILES IDX 1 1 2 2 3 3 4 4 5 6 6 7 10 8 7 9 9 10 8 11 11 13 12 14 25 15
REMARK SMILES IDX 13 16 24 17 23 18 26 19 27 20 28 21 29 22 14 23 15 24 16 25
REMARK SMILES IDX 17 26 18 27 22 28 19 29 21 30 20 31
REMARK H PARENT 4 5 8 12
ROOT
ATOM      1  O   UNL     1      23.239   2.474   4.668  1.00  0.00    -0.207 OA
ATOM      2  S   UNL     1      24.447   3.035   4.114  1.00  0.00     0.241 S 
ATOM      3  O   UNL     1      24.905   2.755   2.770  1.00  0.00    -0.207 OA
ENDROOT
BRANCH   2   4
ATOM      4  N   UNL     1      24.341   4.711   4.195  1.00  0.00    -0.208 NA
ATOM      5  H   UNL     1      24.106   5.006   5.145  1.00  0.00     0.141 HD
BRANCH   4   6
ATOM      6  C   UNL     1      25.238   5.594   3.413  1.00  0.00     0.072 C 
ATOM      7  C   UNL     1      26.727   5.348   3.678  1.00  0.00     0.035 C 
ATOM      8  C   UNL     1      24.902   7.061   3.735  1.00  0.00     0.035 C 
ATOM      9  C   UNL     1      27.158   5.816   5.061  1.00  0.00     0.082 C 
ATOM     10  C   UNL     1      25.457   7.521   5.087  1.00  0.00     0.082 C 
ATOM     11  N   UNL     1      26.884   7.241   5.236  1.00  0.00    -0.317 NA
ATOM     12  H   UNL     1      27.412   7.771   4.541  1.00  0.00     0.122 HD
ENDBRANCH   4   6
ENDBRANCH   2   4
BRANCH   2  13
ATOM     13  C   UNL     1      25.765   2.524   5.193  1.00  0.00     0.096 A 
ATOM     14  C   UNL     1      26.827   1.748   4.699  1.00  0.00     0.043 A 
ATOM     15  C   UNL     1      25.763   2.978   6.530  1.00  0.00     0.076 A 
ATOM     16  C   UNL     1      27.910   1.453   5.539  1.00  0.00     0.073 A 
ATOM     17  C   UNL     1      26.887   2.689   7.334  1.00  0.00     0.016 A 
ATOM     18  C   UNL     1      27.956   1.943   6.844  1.00  0.00     0.021 A 
BRANCH  15  19
ATOM     19  C   UNL     1      24.644   3.759   7.196  1.00  0.00     0.417 C 
ATOM     20  F   UNL     1      23.390   3.263   7.097  1.00  0.00    -0.166 F 
ATOM     21  F   UNL     1      24.868   3.869   8.540  1.00  0.00    -0.166 F 
ATOM     22  F   UNL     1      24.584   5.040   6.738  1.00  0.00    -0.166 F 
ENDBRANCH  15  19
BRANCH  16  23
ATOM     23  S   UNL     1      29.315   0.553   4.906  1.00  0.00     0.206 S 
ATOM     24  O   UNL     1      29.796   1.298   3.756  1.00  0.00    -0.219 OA
ATOM     25  O   UNL     1      30.202   0.289   6.026  1.00  0.00    -0.219 OA
BRANCH  23  26
ATOM     26  C   UNL     1      28.710  -1.012   4.321  1.00  0.00     0.072 A 
ATOM     27  C   UNL     1      29.580  -1.880   3.655  1.00  0.00     0.021 A 
ATOM     28  C   UNL     1      27.391  -1.394   4.592  1.00  0.00     0.021 A 
ATOM     29  C   UNL     1      29.117  -3.124   3.230  1.00  0.00     0.001 A 
ATOM     30  C   UNL     1      26.937  -2.643   4.165  1.00  0.00     0.001 A 
ATOM     31  C   UNL     1      27.798  -3.504   3.483  1.00  0.00     0.000 A 
ENDBRANCH  23  26
ENDBRANCH  16  23
ENDBRANCH   2  13
TORSDOF 6
ENDMDL
MODEL 10
REMARK VINA RESULT:    -3.917      3.267      6.649
REMARK INTER + INTRA:          -3.779
REMARK INTER:                  -6.361
REMARK INTRA:                   2.581
REMARK UNBOUND:                 1.512
REMARK SMILES O=S(=O)(NC1CCNCC1)c1cc(S(=O)(=O)c2ccccc2)ccc1C(F)(F)F
REMARK SMILES IDX 1 1 2 2 3 3 4 4 5 6 6 7 10 8 7 9 9 10 8 11 11 13 12 14 25 15
REMARK SMILES IDX 13 16 24 17 23 18 26 19 27 20 28 21 29 22 14 23 15 24 16 25
REMARK SMILES IDX 17 26 18 27 22 28 19 29 21 30 20 31
REMARK H PARENT 4 5 8 12
ROOT
ATOM      1  O   UNL     1      26.325  -2.410   4.316  1.00  0.00    -0.207 OA
ATOM      2  S   UNL     1      26.680  -1.282   5.142  1.00  0.00     0.241 S 
ATOM      3  O   UNL     1      26.241  -1.137   6.513  1.00  0.00    -0.207 OA
ENDROOT
BRANCH   2   4
ATOM      4  N   UNL     1      28.357  -1.179   5.210  1.00  0.00    -0.208 NA
ATOM      5  H   UNL     1      28.753  -1.220   4.269  1.00  0.00     0.141 HD
BRANCH   4   6
ATOM      6  C   UNL     1      29.053  -0.325   6.202  1.00  0.00     0.072 C 
ATOM      7  C   UNL     1      28.138   0.702   6.877  1.00  0.00     0.035 C 
ATOM      8  C   UNL     1      30.211   0.410   5.504  1.00  0.00     0.035 C 
ATOM      9  C   UNL     1      27.714   1.817   5.931  1.00  0.00     0.082 C 
ATOM     10  C   UNL     1      29.745   1.596   4.655  1.00  0.00     0.082 C 
ATOM     11  N   UNL     1      28.880   2.515   5.394  1.00  0.00    -0.317 NA
ATOM     12  H   UNL     1      29.404   2.933   6.165  1.00  0.00     0.122 HD
ENDBRANCH   4   6
ENDBRANCH   2   4
BRANCH   2  13
ATOM     13  C   UNL     1      26.085   0.160   4.287  1.00  0.00     0.096 A 
ATOM     14  C   UNL     1      25.157   1.017   4.901  1.00  0.00     0.043 A 
ATOM     15  C   UNL     1      26.619   0.465   3.016  1.00  0.00     0.076 A 
ATOM     16  C   UNL     1      24.789   2.206   4.255  1.00  0.00     0.073 A 
ATOM     17  C   UNL     1      26.249   1.686   2.413  1.00  0.00     0.016 A 
ATOM     18  C   UNL     1      25.351   2.556   3.027  1.00  0.00     0.021 A 
BRANCH  15  19
ATOM     19  C   UNL     1      27.569  -0.416   2.222  1.00  0.00     0.417 C 
ATOM     20  F   UNL     1      27.512  -1.749   2.436  1.00  0.00    -0.166 F 
ATOM     21  F   UNL     1      27.351  -0.270   0.881  1.00  0.00    -0.166 F 
ATOM     22  F   UNL     1      28.868  -0.053   2.415  1.00  0.00    -0.166 F 
ENDBRANCH  15  19
BRANCH  16  23
ATOM     23  S   UNL     1      23.689   3.358   5.059  1.00  0.00     0.206 S 
ATOM     24  O   UNL     1      22.484   3.410   4.248  1.00  0.00    -0.219 OA
ATOM     25  O   UNL     1      23.608   2.978   6.458  1.00  0.00    -0.219 OA
BRANCH  23  26
ATOM     26  C   UNL     1      24.461   4.957   4.980  1.00  0.00     0.072 A 
ATOM     27  C   UNL     1      25.732   5.134   5.536  1.00  0.00     0.021 A 
ATOM     28  C   UNL     1      23.826   6.004   4.304  1.00  0.00     0.021 A 
ATOM     29  C   UNL     1      26.356   6.376   5.440  1.00  0.00     0.001 A 
ATOM     30  C   UNL     1      24.459   7.245   4.211  1.00  0.00     0.001 A 
ATOM     31  C   UNL     1      25.720   7.430   4.782  1.00  0.00     0.000 A 
ENDBRANCH  23  26
ENDBRANCH  16  23
ENDBRANCH   2  13
TORSDOF 6
ENDMDL
