REMARK  Name = 
REMARK  6 active torsions:
REMARK  status: ('A' for Active; 'I' for Inactive)
REMARK    1  A    between atoms: C_6  and  N_7
REMARK    2  A    between atoms: N_7  and  S_8
REMARK    3  A    between atoms: S_8  and  C_11
REMARK    4  A    between atoms: C_12  and  C_26
REMARK    5  A    between atoms: C_15  and  S_17
REMARK    6  A    between atoms: S_17  and  C_20
REMARK                            x       y       z     vdW  Elec       q    Type
REMARK                         _______ _______ _______ _____ _____    ______ ____
ROOT
ATOM      1  C   UNL     1      -2.696   1.504  -3.944  0.00  0.00    +0.119 A 
ATOM      2  C   UNL     1      -2.810   0.262  -4.599  0.00  0.00    +0.081 A 
ATOM      3  C   UNL     1      -3.031   0.269  -5.995  0.00  0.00    +0.016 A 
ATOM      4  C   UNL     1      -3.206   1.460  -6.702  0.00  0.00    +0.028 A 
ATOM      5  C   UNL     1      -3.122   2.673  -6.028  0.00  0.00    +0.095 A 
ATOM      6  C   UNL     1      -2.818   2.706  -4.668  0.00  0.00    +0.056 A 
ENDROOT
BRANCH   2   7
ATOM      7  C   UNL     1      -2.815  -1.105  -3.942  0.00  0.00    +0.419 C 
ATOM      8  F   UNL     1      -2.801  -1.132  -2.589  0.00  0.00    -0.166 F 
ATOM      9  F   UNL     1      -3.957  -1.783  -4.269  0.00  0.00    -0.166 F 
ATOM     10  F   UNL     1      -1.792  -1.891  -4.368  0.00  0.00    -0.166 F 
ENDBRANCH   2   7
BRANCH   1  11
ATOM     11  S   UNL     1      -2.465   1.646  -2.169  0.00  0.00    +0.059 S 
ATOM     12  O   UNL     1      -2.378   3.055  -1.853  0.00  0.00    -0.153 OA
ATOM     13  O   UNL     1      -1.402   0.740  -1.847  0.00  0.00    -0.153 OA
BRANCH  11  14
ATOM     14  N   UNL     1      -3.917   1.065  -1.564  0.00  0.00    -0.187 NA
ATOM     15  H   UNL     1      -4.076   0.072  -1.733  0.00  0.00    +0.148 HD
BRANCH  14  21
ATOM     16  C   UNL     1      -6.209   1.164  -0.641  0.00  0.00    +0.035 C 
ATOM     17  C   UNL     1      -6.872   0.153  -1.579  0.00  0.00    +0.082 C 
ATOM     18  N   UNL     1      -7.359   0.775  -2.811  0.00  0.00    -0.316 NA
ATOM     19  C   UNL     1      -6.301   1.499  -3.512  0.00  0.00    +0.082 C 
ATOM     20  C   UNL     1      -5.655   2.555  -2.622  0.00  0.00    +0.035 C 
ATOM     21  C   UNL     1      -5.090   1.947  -1.343  0.00  0.00    +0.079 C 
ATOM     22  H   UNL     1      -8.118   1.422  -2.587  0.00  0.00    +0.122 HD
ENDBRANCH  14  21
ENDBRANCH  11  14
ENDBRANCH   1  11
BRANCH   5  23
ATOM     23  S   UNL     1      -3.668   4.167  -6.819  0.00  0.00    +0.027 S 
ATOM     24  O   UNL     1      -4.155   3.805  -8.138  0.00  0.00    -0.164 OA
ATOM     25  O   UNL     1      -4.557   4.816  -5.873  0.00  0.00    -0.164 OA
BRANCH  23  26
ATOM     26  C   UNL     1      -2.281   5.222  -7.048  0.00  0.00    +0.112 A 
ATOM     27  C   UNL     1      -1.943   6.186  -6.099  0.00  0.00    +0.030 A 
ATOM     28  C   UNL     1      -0.893   7.060  -6.380  0.00  0.00    +0.022 A 
ATOM     29  C   UNL     1      -0.238   6.932  -7.592  0.00  0.00    +0.111 A 
ATOM     30  N   UNL     1      -0.553   6.006  -8.527  0.00  0.00    -0.261 NA
ATOM     31  C   UNL     1      -1.583   5.174  -8.242  0.00  0.00    +0.138 A 
ENDBRANCH  23  26
ENDBRANCH   5  23
TORSDOF 6
