MODEL 1
REMARK VINA RESULT:    -7.447      0.000      0.000
REMARK INTER + INTRA:         -11.108
REMARK INTER:                 -10.059
REMARK INTRA:                  -1.049
REMARK UNBOUND:                -1.049
REMARK  Name = 
REMARK  6 active torsions:
REMARK  status: ('A' for Active; 'I' for Inactive)
REMARK    1  A    between atoms: C_6  and  N_7
REMARK    2  A    between atoms: N_7  and  S_8
REMARK    3  A    between atoms: S_8  and  C_11
REMARK    4  A    between atoms: C_12  and  C_26
REMARK    5  A    between atoms: C_15  and  S_17
REMARK    6  A    between atoms: S_17  and  C_20
REMARK                            x       y       z     vdW  Elec       q    Type
REMARK                         _______ _______ _______ _____ _____    ______ ____
ROOT
ATOM      1  C   UNL     1      -0.209  -3.487  -1.000  0.00  0.00    +0.119 A 
ATOM      2  C   UNL     1      -0.294  -4.815  -1.464  0.00  0.00    +0.081 A 
ATOM      3  C   UNL     1       0.913  -5.500  -1.731  0.00  0.00    +0.016 A 
ATOM      4  C   UNL     1       2.153  -4.871  -1.613  0.00  0.00    +0.028 A 
ATOM      5  C   UNL     1       2.210  -3.549  -1.185  0.00  0.00    +0.095 A 
ATOM      6  C   UNL     1       1.046  -2.871  -0.829  0.00  0.00    +0.056 A 
ENDROOT
BRANCH   2   7
ATOM      7  C   UNL     1      -1.565  -5.570  -1.803  0.00  0.00    +0.419 C 
ATOM      8  F   UNL     1      -2.402  -4.987  -2.694  0.00  0.00    -0.166 F 
ATOM      9  F   UNL     1      -1.262  -6.772  -2.381  0.00  0.00    -0.166 F 
ATOM     10  F   UNL     1      -2.301  -5.872  -0.702  0.00  0.00    -0.166 F 
ENDBRANCH   2   7
BRANCH   1  11
ATOM     11  S   UNL     1      -1.659  -2.481  -0.669  0.00  0.00    +0.059 S 
ATOM     12  O   UNL     1      -2.436  -3.159   0.346  0.00  0.00    -0.153 OA
ATOM     13  O   UNL     1      -2.214  -2.173  -1.954  0.00  0.00    -0.153 OA
BRANCH  11  14
ATOM     14  N   UNL     1      -0.997  -1.101   0.016  0.00  0.00    -0.187 NA
ATOM     15  H   UNL     1      -0.079  -0.849  -0.348  0.00  0.00    +0.148 HD
BRANCH  14  21
ATOM     16  C   UNL     1      -2.615   0.279   1.279  0.00  0.00    +0.035 C 
ATOM     17  C   UNL     1      -2.277   1.639   0.664  0.00  0.00    +0.082 C 
ATOM     18  N   UNL     1      -1.182   2.309   1.366  0.00  0.00    -0.316 NA
ATOM     19  C   UNL     1       0.015   1.473   1.436  0.00  0.00    +0.082 C 
ATOM     20  C   UNL     1      -0.274   0.129   2.095  0.00  0.00    +0.035 C 
ATOM     21  C   UNL     1      -1.380  -0.630   1.370  0.00  0.00    +0.079 C 
ATOM     22  H   UNL     1      -1.482   2.547   2.314  0.00  0.00    +0.122 HD
ENDBRANCH  14  21
ENDBRANCH  11  14
ENDBRANCH   1  11
BRANCH   5  23
ATOM     23  S   UNL     1       3.721  -2.629  -1.349  0.00  0.00    +0.027 S 
ATOM     24  O   UNL     1       4.086  -2.643  -2.754  0.00  0.00    -0.164 OA
ATOM     25  O   UNL     1       3.491  -1.364  -0.674  0.00  0.00    -0.164 OA
BRANCH  23  26
ATOM     26  C   UNL     1       4.991  -3.470  -0.472  0.00  0.00    +0.112 A 
ATOM     27  C   UNL     1       5.199  -3.246   0.889  0.00  0.00    +0.030 A 
ATOM     28  C   UNL     1       6.283  -3.867   1.509  0.00  0.00    +0.022 A 
ATOM     29  C   UNL     1       7.105  -4.673   0.743  0.00  0.00    +0.111 A 
ATOM     30  N   UNL     1       6.923  -4.900  -0.579  0.00  0.00    -0.261 NA
ATOM     31  C   UNL     1       5.872  -4.279  -1.167  0.00  0.00    +0.138 A 
ENDBRANCH  23  26
ENDBRANCH   5  23
TORSDOF 6
ENDMDL
MODEL 2
REMARK VINA RESULT:    -7.261      3.279      6.171
REMARK INTER + INTRA:         -10.857
REMARK INTER:                  -9.752
REMARK INTRA:                  -1.104
REMARK UNBOUND:                -1.049
REMARK  Name = 
REMARK  6 active torsions:
REMARK  status: ('A' for Active; 'I' for Inactive)
REMARK    1  A    between atoms: C_6  and  N_7
REMARK    2  A    between atoms: N_7  and  S_8
REMARK    3  A    between atoms: S_8  and  C_11
REMARK    4  A    between atoms: C_12  and  C_26
REMARK    5  A    between atoms: C_15  and  S_17
REMARK    6  A    between atoms: S_17  and  C_20
REMARK                            x       y       z     vdW  Elec       q    Type
REMARK                         _______ _______ _______ _____ _____    ______ ____
ROOT
ATOM      1  C   UNL     1       1.389  -1.924  -0.498  0.00  0.00    +0.119 A 
ATOM      2  C   UNL     1       2.350  -2.937  -0.690  0.00  0.00    +0.081 A 
ATOM      3  C   UNL     1       1.917  -4.159  -1.254  0.00  0.00    +0.016 A 
ATOM      4  C   UNL     1       0.573  -4.395  -1.546  0.00  0.00    +0.028 A 
ATOM      5  C   UNL     1      -0.362  -3.392  -1.317  0.00  0.00    +0.095 A 
ATOM      6  C   UNL     1       0.042  -2.144  -0.845  0.00  0.00    +0.056 A 
ENDROOT
BRANCH   2   7
ATOM      7  C   UNL     1       3.805  -2.891  -0.264  0.00  0.00    +0.419 C 
ATOM      8  F   UNL     1       4.050  -2.857   1.066  0.00  0.00    -0.166 F 
ATOM      9  F   UNL     1       4.458  -4.015  -0.688  0.00  0.00    -0.166 F 
ATOM     10  F   UNL     1       4.477  -1.850  -0.821  0.00  0.00    -0.166 F 
ENDBRANCH   2   7
BRANCH   1  11
ATOM     11  S   UNL     1       1.786  -0.342   0.253  0.00  0.00    +0.059 S 
ATOM     12  O   UNL     1       2.604   0.392  -0.687  0.00  0.00    -0.153 OA
ATOM     13  O   UNL     1       2.256  -0.651   1.572  0.00  0.00    -0.153 OA
BRANCH  11  14
ATOM     14  N   UNL     1       0.289   0.408   0.338  0.00  0.00    -0.187 NA
ATOM     15  H   UNL     1       0.079   1.020  -0.450  0.00  0.00    +0.148 HD
BRANCH  14  21
ATOM     16  C   UNL     1      -1.611  -0.291   1.758  0.00  0.00    +0.035 C 
ATOM     17  C   UNL     1      -2.752   0.119   0.824  0.00  0.00    +0.082 C 
ATOM     18  N   UNL     1      -3.148   1.515   1.009  0.00  0.00    -0.316 NA
ATOM     19  C   UNL     1      -2.016   2.428   0.859  0.00  0.00    +0.082 C 
ATOM     20  C   UNL     1      -0.882   2.082   1.817  0.00  0.00    +0.035 C 
ATOM     21  C   UNL     1      -0.402   0.647   1.630  0.00  0.00    +0.079 C 
ATOM     22  H   UNL     1      -3.553   1.632   1.940  0.00  0.00    +0.122 HD
ENDBRANCH  14  21
ENDBRANCH  11  14
ENDBRANCH   1  11
BRANCH   5  23
ATOM     23  S   UNL     1      -2.097  -3.770  -1.357  0.00  0.00    +0.027 S 
ATOM     24  O   UNL     1      -2.336  -4.810  -0.372  0.00  0.00    -0.164 OA
ATOM     25  O   UNL     1      -2.785  -2.497  -1.246  0.00  0.00    -0.164 OA
BRANCH  23  26
ATOM     26  C   UNL     1      -2.490  -4.445  -2.932  0.00  0.00    +0.112 A 
ATOM     27  C   UNL     1      -2.448  -3.661  -4.084  0.00  0.00    +0.030 A 
ATOM     28  C   UNL     1      -2.865  -4.224  -5.290  0.00  0.00    +0.022 A 
ATOM     29  C   UNL     1      -3.306  -5.535  -5.285  0.00  0.00    +0.111 A 
ATOM     30  N   UNL     1      -3.357  -6.311  -4.178  0.00  0.00    -0.261 NA
ATOM     31  C   UNL     1      -2.960  -5.744  -3.014  0.00  0.00    +0.138 A 
ENDBRANCH  23  26
ENDBRANCH   5  23
TORSDOF 6
ENDMDL
MODEL 3
REMARK VINA RESULT:    -7.243      3.230      4.936
REMARK INTER + INTRA:         -10.832
REMARK INTER:                 -10.169
REMARK INTRA:                  -0.663
REMARK UNBOUND:                -1.049
REMARK  Name = 
REMARK  6 active torsions:
REMARK  status: ('A' for Active; 'I' for Inactive)
REMARK    1  A    between atoms: C_6  and  N_7
REMARK    2  A    between atoms: N_7  and  S_8
REMARK    3  A    between atoms: S_8  and  C_11
REMARK    4  A    between atoms: C_12  and  C_26
REMARK    5  A    between atoms: C_15  and  S_17
REMARK    6  A    between atoms: S_17  and  C_20
REMARK                            x       y       z     vdW  Elec       q    Type
REMARK                         _______ _______ _______ _____ _____    ______ ____
ROOT
ATOM      1  C   UNL     1       0.057  -1.190   0.177  0.00  0.00    +0.119 A 
ATOM      2  C   UNL     1       0.677  -0.166   0.920  0.00  0.00    +0.081 A 
ATOM      3  C   UNL     1       2.069   0.016   0.760  0.00  0.00    +0.016 A 
ATOM      4  C   UNL     1       2.829  -0.830  -0.048  0.00  0.00    +0.028 A 
ATOM      5  C   UNL     1       2.200  -1.855  -0.747  0.00  0.00    +0.095 A 
ATOM      6  C   UNL     1       0.816  -2.008  -0.681  0.00  0.00    +0.056 A 
ENDROOT
BRANCH   2   7
ATOM      7  C   UNL     1       0.016   0.716   1.963  0.00  0.00    +0.419 C 
ATOM      8  F   UNL     1      -1.263   1.090   1.725  0.00  0.00    -0.166 F 
ATOM      9  F   UNL     1      -0.054   0.061   3.161  0.00  0.00    -0.166 F 
ATOM     10  F   UNL     1       0.724   1.849   2.210  0.00  0.00    -0.166 F 
ENDBRANCH   2   7
BRANCH   1  11
ATOM     11  S   UNL     1      -1.693  -1.566   0.319  0.00  0.00    +0.059 S 
ATOM     12  O   UNL     1      -2.415  -0.577  -0.450  0.00  0.00    -0.153 OA
ATOM     13  O   UNL     1      -1.935  -1.746   1.720  0.00  0.00    -0.153 OA
BRANCH  11  14
ATOM     14  N   UNL     1      -1.816  -3.037  -0.478  0.00  0.00    -0.187 NA
ATOM     15  H   UNL     1      -1.013  -3.652  -0.351  0.00  0.00    +0.148 HD
BRANCH  14  21
ATOM     16  C   UNL     1      -3.400  -4.563  -1.608  0.00  0.00    +0.035 C 
ATOM     17  C   UNL     1      -2.450  -5.740  -1.839  0.00  0.00    +0.082 C 
ATOM     18  N   UNL     1      -1.703  -5.614  -3.092  0.00  0.00    -0.316 NA
ATOM     19  C   UNL     1      -0.973  -4.351  -3.166  0.00  0.00    +0.082 C 
ATOM     20  C   UNL     1      -1.899  -3.152  -2.996  0.00  0.00    +0.035 C 
ATOM     21  C   UNL     1      -2.668  -3.215  -1.680  0.00  0.00    +0.079 C 
ATOM     22  H   UNL     1      -2.351  -5.675  -3.880  0.00  0.00    +0.122 HD
ENDBRANCH  14  21
ENDBRANCH  11  14
ENDBRANCH   1  11
BRANCH   5  23
ATOM     23  S   UNL     1       3.168  -3.138  -1.503  0.00  0.00    +0.027 S 
ATOM     24  O   UNL     1       2.260  -4.214  -1.856  0.00  0.00    -0.164 OA
ATOM     25  O   UNL     1       3.955  -2.487  -2.535  0.00  0.00    -0.164 OA
BRANCH  23  26
ATOM     26  C   UNL     1       4.290  -3.775  -0.308  0.00  0.00    +0.112 A 
ATOM     27  C   UNL     1       5.175  -2.937   0.369  0.00  0.00    +0.030 A 
ATOM     28  C   UNL     1       6.109  -3.511   1.232  0.00  0.00    +0.022 A 
ATOM     29  C   UNL     1       6.116  -4.887   1.371  0.00  0.00    +0.111 A 
ATOM     30  N   UNL     1       5.268  -5.717   0.721  0.00  0.00    -0.261 NA
ATOM     31  C   UNL     1       4.376  -5.143  -0.122  0.00  0.00    +0.138 A 
ENDBRANCH  23  26
ENDBRANCH   5  23
TORSDOF 6
ENDMDL
MODEL 4
REMARK VINA RESULT:    -7.105      3.400      6.595
REMARK INTER + INTRA:         -10.646
REMARK INTER:                  -9.484
REMARK INTRA:                  -1.162
REMARK UNBOUND:                -1.049
REMARK  Name = 
REMARK  6 active torsions:
REMARK  status: ('A' for Active; 'I' for Inactive)
REMARK    1  A    between atoms: C_6  and  N_7
REMARK    2  A    between atoms: N_7  and  S_8
REMARK    3  A    between atoms: S_8  and  C_11
REMARK    4  A    between atoms: C_12  and  C_26
REMARK    5  A    between atoms: C_15  and  S_17
REMARK    6  A    between atoms: S_17  and  C_20
REMARK                            x       y       z     vdW  Elec       q    Type
REMARK                         _______ _______ _______ _____ _____    ______ ____
ROOT
ATOM      1  C   UNL     1       0.185  -1.360   0.129  0.00  0.00    +0.119 A 
ATOM      2  C   UNL     1      -0.814  -0.610   0.782  0.00  0.00    +0.081 A 
ATOM      3  C   UNL     1      -2.156  -1.029   0.637  0.00  0.00    +0.016 A 
ATOM      4  C   UNL     1      -2.502  -2.104  -0.184  0.00  0.00    +0.028 A 
ATOM      5  C   UNL     1      -1.502  -2.808  -0.845  0.00  0.00    +0.095 A 
ATOM      6  C   UNL     1      -0.161  -2.478  -0.655  0.00  0.00    +0.056 A 
ENDROOT
BRANCH   2   7
ATOM      7  C   UNL     1      -0.609   0.674   1.562  0.00  0.00    +0.419 C 
ATOM      8  F   UNL     1       0.161   1.624   0.982  0.00  0.00    -0.166 F 
ATOM      9  F   UNL     1      -1.807   1.304   1.759  0.00  0.00    -0.166 F 
ATOM     10  F   UNL     1      -0.106   0.455   2.804  0.00  0.00    -0.166 F 
ENDBRANCH   2   7
BRANCH   1  11
ATOM     11  S   UNL     1       1.923  -0.915   0.185  0.00  0.00    +0.059 S 
ATOM     12  O   UNL     1       2.258  -0.640   1.565  0.00  0.00    -0.153 OA
ATOM     13  O   UNL     1       2.099   0.074  -0.838  0.00  0.00    -0.153 OA
BRANCH  11  14
ATOM     14  N   UNL     1       2.680  -2.343  -0.261  0.00  0.00    -0.187 NA
ATOM     15  H   UNL     1       2.306  -3.176   0.191  0.00  0.00    +0.148 HD
BRANCH  14  21
ATOM     16  C   UNL     1       4.151  -3.228  -2.041  0.00  0.00    +0.035 C 
ATOM     17  C   UNL     1       4.001  -4.720  -1.734  0.00  0.00    +0.082 C 
ATOM     18  N   UNL     1       4.963  -5.181  -0.733  0.00  0.00    -0.316 NA
ATOM     19  C   UNL     1       4.885  -4.399   0.500  0.00  0.00    +0.082 C 
ATOM     20  C   UNL     1       5.086  -2.911   0.237  0.00  0.00    +0.035 C 
ATOM     21  C   UNL     1       4.075  -2.372  -0.768  0.00  0.00    +0.079 C 
ATOM     22  H   UNL     1       5.909  -5.112  -1.115  0.00  0.00    +0.122 HD
ENDBRANCH  14  21
ENDBRANCH  11  14
ENDBRANCH   1  11
BRANCH   5  23
ATOM     23  S   UNL     1      -1.927  -3.946  -2.141  0.00  0.00    +0.027 S 
ATOM     24  O   UNL     1      -3.311  -4.336  -1.938  0.00  0.00    -0.164 OA
ATOM     25  O   UNL     1      -1.531  -3.303  -3.381  0.00  0.00    -0.164 OA
BRANCH  23  26
ATOM     26  C   UNL     1      -0.947  -5.394  -1.963  0.00  0.00    +0.112 A 
ATOM     27  C   UNL     1      -1.219  -6.331  -0.967  0.00  0.00    +0.030 A 
ATOM     28  C   UNL     1      -0.349  -7.410  -0.811  0.00  0.00    +0.022 A 
ATOM     29  C   UNL     1       0.748  -7.497  -1.649  0.00  0.00    +0.111 A 
ATOM     30  N   UNL     1       1.031  -6.596  -2.619  0.00  0.00    -0.261 NA
ATOM     31  C   UNL     1       0.182  -5.549  -2.748  0.00  0.00    +0.138 A 
ENDBRANCH  23  26
ENDBRANCH   5  23
TORSDOF 6
ENDMDL
MODEL 5
REMARK VINA RESULT:    -7.088      3.658      7.207
REMARK INTER + INTRA:         -10.623
REMARK INTER:                  -9.378
REMARK INTRA:                  -1.245
REMARK UNBOUND:                -1.049
REMARK  Name = 
REMARK  6 active torsions:
REMARK  status: ('A' for Active; 'I' for Inactive)
REMARK    1  A    between atoms: C_6  and  N_7
REMARK    2  A    between atoms: N_7  and  S_8
REMARK    3  A    between atoms: S_8  and  C_11
REMARK    4  A    between atoms: C_12  and  C_26
REMARK    5  A    between atoms: C_15  and  S_17
REMARK    6  A    between atoms: S_17  and  C_20
REMARK                            x       y       z     vdW  Elec       q    Type
REMARK                         _______ _______ _______ _____ _____    ______ ____
ROOT
ATOM      1  C   UNL     1       1.469  -2.229  -0.421  0.00  0.00    +0.119 A 
ATOM      2  C   UNL     1       0.901  -1.149   0.284  0.00  0.00    +0.081 A 
ATOM      3  C   UNL     1      -0.509  -1.054   0.324  0.00  0.00    +0.016 A 
ATOM      4  C   UNL     1      -1.322  -1.952  -0.370  0.00  0.00    +0.028 A 
ATOM      5  C   UNL     1      -0.738  -2.991  -1.086  0.00  0.00    +0.095 A 
ATOM      6  C   UNL     1       0.645  -3.166  -1.074  0.00  0.00    +0.056 A 
ENDROOT
BRANCH   2   7
ATOM      7  C   UNL     1       1.653  -0.005   0.937  0.00  0.00    +0.419 C 
ATOM      8  F   UNL     1       2.628   0.581   0.204  0.00  0.00    -0.166 F 
ATOM      9  F   UNL     1       0.797   1.023   1.221  0.00  0.00    -0.166 F 
ATOM     10  F   UNL     1       2.205  -0.357   2.127  0.00  0.00    -0.166 F 
ENDBRANCH   2   7
BRANCH   1  11
ATOM     11  S   UNL     1       3.243  -2.446  -0.596  0.00  0.00    +0.059 S 
ATOM     12  O   UNL     1       3.807  -2.504   0.734  0.00  0.00    -0.153 OA
ATOM     13  O   UNL     1       3.659  -1.454  -1.543  0.00  0.00    -0.153 OA
BRANCH  11  14
ATOM     14  N   UNL     1       3.358  -3.974  -1.278  0.00  0.00    -0.187 NA
ATOM     15  H   UNL     1       2.476  -4.345  -1.631  0.00  0.00    +0.148 HD
BRANCH  14  21
ATOM     16  C   UNL     1       5.791  -4.400  -1.387  0.00  0.00    +0.035 C 
ATOM     17  C   UNL     1       5.933  -4.500  -2.907  0.00  0.00    +0.082 C 
ATOM     18  N   UNL     1       5.691  -5.856  -3.400  0.00  0.00    -0.316 NA
ATOM     19  C   UNL     1       4.388  -6.365  -2.977  0.00  0.00    +0.082 C 
ATOM     20  C   UNL     1       4.233  -6.332  -1.461  0.00  0.00    +0.035 C 
ATOM     21  C   UNL     1       4.433  -4.927  -0.903  0.00  0.00    +0.079 C 
ATOM     22  H   UNL     1       6.423  -6.479  -3.053  0.00  0.00    +0.122 HD
ENDBRANCH  14  21
ENDBRANCH  11  14
ENDBRANCH   1  11
BRANCH   5  23
ATOM     23  S   UNL     1      -1.710  -3.932  -2.237  0.00  0.00    +0.027 S 
ATOM     24  O   UNL     1      -3.032  -4.089  -1.659  0.00  0.00    -0.164 OA
ATOM     25  O   UNL     1      -1.555  -3.273  -3.520  0.00  0.00    -0.164 OA
BRANCH  23  26
ATOM     26  C   UNL     1      -1.011  -5.538  -2.382  0.00  0.00    +0.112 A 
ATOM     27  C   UNL     1      -0.979  -6.412  -1.296  0.00  0.00    +0.030 A 
ATOM     28  C   UNL     1      -0.324  -7.635  -1.442  0.00  0.00    +0.022 A 
ATOM     29  C   UNL     1       0.268  -7.922  -2.660  0.00  0.00    +0.111 A 
ATOM     30  N   UNL     1       0.251  -7.086  -3.724  0.00  0.00    -0.261 NA
ATOM     31  C   UNL     1      -0.379  -5.898  -3.559  0.00  0.00    +0.138 A 
ENDBRANCH  23  26
ENDBRANCH   5  23
TORSDOF 6
ENDMDL
