MODEL 1
REMARK VINA RESULT:    -4.832      0.000      0.000
REMARK INTER + INTRA:          -7.167
REMARK INTER:                  -6.527
REMARK INTRA:                  -0.640
REMARK UNBOUND:                -0.640
REMARK  Name = 
REMARK  6 active torsions:
REMARK  status: ('A' for Active; 'I' for Inactive)
REMARK    1  A    between atoms: C_6  and  N_7
REMARK    2  A    between atoms: N_7  and  S_8
REMARK    3  A    between atoms: S_8  and  C_11
REMARK    4  A    between atoms: C_12  and  C_26
REMARK    5  A    between atoms: C_15  and  S_17
REMARK    6  A    between atoms: S_17  and  C_20
REMARK                            x       y       z     vdW  Elec       q    Type
REMARK                         _______ _______ _______ _____ _____    ______ ____
ROOT
ATOM      1  C   UNL     1      25.693   4.499   4.247  0.00  0.00    +0.119 A 
ATOM      2  C   UNL     1      24.569   5.299   4.533  0.00  0.00    +0.081 A 
ATOM      3  C   UNL     1      23.317   4.655   4.666  0.00  0.00    +0.016 A 
ATOM      4  C   UNL     1      23.173   3.284   4.450  0.00  0.00    +0.028 A 
ATOM      5  C   UNL     1      24.292   2.520   4.136  0.00  0.00    +0.095 A 
ATOM      6  C   UNL     1      25.555   3.107   4.084  0.00  0.00    +0.056 A 
ENDROOT
BRANCH   2   7
ATOM      7  C   UNL     1      24.540   6.812   4.623  0.00  0.00    +0.419 C 
ATOM      8  F   UNL     1      24.987   7.496   3.544  0.00  0.00    -0.166 F 
ATOM      9  F   UNL     1      23.254   7.253   4.778  0.00  0.00    -0.166 F 
ATOM     10  F   UNL     1      25.217   7.283   5.703  0.00  0.00    -0.166 F 
ENDBRANCH   2   7
BRANCH   1  11
ATOM     11  S   UNL     1      27.334   5.186   4.002  0.00  0.00    +0.059 S 
ATOM     12  O   UNL     1      27.565   6.147   5.059  0.00  0.00    -0.153 OA
ATOM     13  O   UNL     1      27.388   5.566   2.621  0.00  0.00    -0.153 OA
BRANCH  11  14
ATOM     14  N   UNL     1      28.328   3.863   4.273  0.00  0.00    -0.187 NA
ATOM     15  H   UNL     1      28.156   3.074   3.651  0.00  0.00    +0.148 HD
BRANCH  14  21
ATOM     16  C   UNL     1      29.935   2.426   5.484  0.00  0.00    +0.035 C 
ATOM     17  C   UNL     1      29.198   1.092   5.335  0.00  0.00    +0.082 C 
ATOM     18  N   UNL     1      28.223   0.874   6.404  0.00  0.00    -0.316 NA
ATOM     19  C   UNL     1      27.266   1.974   6.502  0.00  0.00    +0.082 C 
ATOM     20  C   UNL     1      27.965   3.313   6.707  0.00  0.00    +0.035 C 
ATOM     21  C   UNL     1      28.961   3.608   5.591  0.00  0.00    +0.079 C 
ATOM     22  H   UNL     1      28.714   0.775   7.295  0.00  0.00    +0.122 HD
ENDBRANCH  14  21
ENDBRANCH  11  14
ENDBRANCH   1  11
BRANCH   5  23
ATOM     23  S   UNL     1      24.093   0.862   3.531  0.00  0.00    +0.027 S 
ATOM     24  O   UNL     1      23.169   0.184   4.423  0.00  0.00    -0.164 OA
ATOM     25  O   UNL     1      23.775   0.988   2.121  0.00  0.00    -0.164 OA
BRANCH  23  26
ATOM     26  C   UNL     1      25.636   0.030   3.652  0.00  0.00    +0.112 A 
ATOM     27  C   UNL     1      26.626   0.202   2.685  0.00  0.00    +0.030 A 
ATOM     28  C   UNL     1      27.791  -0.560   2.779  0.00  0.00    +0.022 A 
ATOM     29  C   UNL     1      27.908  -1.454   3.828  0.00  0.00    +0.111 A 
ATOM     30  N   UNL     1      26.958  -1.638   4.774  0.00  0.00    -0.261 NA
ATOM     31  C   UNL     1      25.828  -0.899   4.659  0.00  0.00    +0.138 A 
ENDBRANCH  23  26
ENDBRANCH   5  23
TORSDOF 6
ENDMDL
MODEL 2
REMARK VINA RESULT:    -4.450      3.874      6.814
REMARK INTER + INTRA:          -6.651
REMARK INTER:                  -6.029
REMARK INTRA:                  -0.622
REMARK UNBOUND:                -0.640
REMARK  Name = 
REMARK  6 active torsions:
REMARK  status: ('A' for Active; 'I' for Inactive)
REMARK    1  A    between atoms: C_6  and  N_7
REMARK    2  A    between atoms: N_7  and  S_8
REMARK    3  A    between atoms: S_8  and  C_11
REMARK    4  A    between atoms: C_12  and  C_26
REMARK    5  A    between atoms: C_15  and  S_17
REMARK    6  A    between atoms: S_17  and  C_20
REMARK                            x       y       z     vdW  Elec       q    Type
REMARK                         _______ _______ _______ _____ _____    ______ ____
ROOT
ATOM      1  C   UNL     1      26.663   0.653   4.172  0.00  0.00    +0.119 A 
ATOM      2  C   UNL     1      27.537  -0.445   4.297  0.00  0.00    +0.081 A 
ATOM      3  C   UNL     1      28.687  -0.286   5.103  0.00  0.00    +0.016 A 
ATOM      4  C   UNL     1      28.997   0.936   5.702  0.00  0.00    +0.028 A 
ATOM      5  C   UNL     1      28.136   2.015   5.539  0.00  0.00    +0.095 A 
ATOM      6  C   UNL     1      26.949   1.870   4.823  0.00  0.00    +0.056 A 
ENDROOT
BRANCH   2   7
ATOM      7  C   UNL     1      27.424  -1.771   3.571  0.00  0.00    +0.419 C 
ATOM      8  F   UNL     1      27.457  -1.732   2.218  0.00  0.00    -0.166 F 
ATOM      9  F   UNL     1      28.476  -2.581   3.898  0.00  0.00    -0.166 F 
ATOM     10  F   UNL     1      26.309  -2.464   3.923  0.00  0.00    -0.166 F 
ENDBRANCH   2   7
BRANCH   1  11
ATOM     11  S   UNL     1      25.193   0.610   3.142  0.00  0.00    +0.059 S 
ATOM     12  O   UNL     1      24.360  -0.472   3.618  0.00  0.00    -0.153 OA
ATOM     13  O   UNL     1      25.670   0.649   1.791  0.00  0.00    -0.153 OA
BRANCH  11  14
ATOM     14  N   UNL     1      24.436   2.057   3.525  0.00  0.00    -0.187 NA
ATOM     15  H   UNL     1      25.012   2.885   3.377  0.00  0.00    +0.148 HD
BRANCH  14  21
ATOM     16  C   UNL     1      22.365   3.272   4.119  0.00  0.00    +0.035 C 
ATOM     17  C   UNL     1      22.982   4.645   4.392  0.00  0.00    +0.082 C 
ATOM     18  N   UNL     1      23.440   4.783   5.775  0.00  0.00    -0.316 NA
ATOM     19  C   UNL     1      24.375   3.724   6.149  0.00  0.00    +0.082 C 
ATOM     20  C   UNL     1      23.771   2.339   5.941  0.00  0.00    +0.035 C 
ATOM     21  C   UNL     1      23.319   2.130   4.500  0.00  0.00    +0.079 C 
ATOM     22  H   UNL     1      22.634   4.757   6.403  0.00  0.00    +0.122 HD
ENDBRANCH  14  21
ENDBRANCH  11  14
ENDBRANCH   1  11
BRANCH   5  23
ATOM     23  S   UNL     1      28.664   3.648   5.997  0.00  0.00    +0.027 S 
ATOM     24  O   UNL     1      28.413   3.801   7.419  0.00  0.00    -0.164 OA
ATOM     25  O   UNL     1      30.013   3.790   5.481  0.00  0.00    -0.164 OA
BRANCH  23  26
ATOM     26  C   UNL     1      27.655   4.821   5.162  0.00  0.00    +0.112 A 
ATOM     27  C   UNL     1      27.215   5.980   5.801  0.00  0.00    +0.030 A 
ATOM     28  C   UNL     1      26.337   6.824   5.123  0.00  0.00    +0.022 A 
ATOM     29  C   UNL     1      25.938   6.469   3.846  0.00  0.00    +0.111 A 
ATOM     30  N   UNL     1      26.350   5.347   3.210  0.00  0.00    -0.261 NA
ATOM     31  C   UNL     1      27.193   4.534   3.889  0.00  0.00    +0.138 A 
ENDBRANCH  23  26
ENDBRANCH   5  23
TORSDOF 6
ENDMDL
MODEL 3
REMARK VINA RESULT:    -4.299      2.718      4.323
REMARK INTER + INTRA:          -6.447
REMARK INTER:                  -7.659
REMARK INTRA:                   1.212
REMARK UNBOUND:                -0.640
REMARK  Name = 
REMARK  6 active torsions:
REMARK  status: ('A' for Active; 'I' for Inactive)
REMARK    1  A    between atoms: C_6  and  N_7
REMARK    2  A    between atoms: N_7  and  S_8
REMARK    3  A    between atoms: S_8  and  C_11
REMARK    4  A    between atoms: C_12  and  C_26
REMARK    5  A    between atoms: C_15  and  S_17
REMARK    6  A    between atoms: S_17  and  C_20
REMARK                            x       y       z     vdW  Elec       q    Type
REMARK                         _______ _______ _______ _____ _____    ______ ____
ROOT
ATOM      1  C   UNL     1      24.917   2.434   5.370  0.00  0.00    +0.119 A 
ATOM      2  C   UNL     1      23.745   2.602   4.608  0.00  0.00    +0.081 A 
ATOM      3  C   UNL     1      23.443   1.622   3.635  0.00  0.00    +0.016 A 
ATOM      4  C   UNL     1      24.308   0.557   3.376  0.00  0.00    +0.028 A 
ATOM      5  C   UNL     1      25.477   0.431   4.119  0.00  0.00    +0.095 A 
ATOM      6  C   UNL     1      25.762   1.329   5.146  0.00  0.00    +0.056 A 
ENDROOT
BRANCH   2   7
ATOM      7  C   UNL     1      22.803   3.790   4.654  0.00  0.00    +0.419 C 
ATOM      8  F   UNL     1      22.962   4.656   5.683  0.00  0.00    -0.166 F 
ATOM      9  F   UNL     1      22.971   4.571   3.544  0.00  0.00    -0.166 F 
ATOM     10  F   UNL     1      21.496   3.420   4.643  0.00  0.00    -0.166 F 
ENDBRANCH   2   7
BRANCH   1  11
ATOM     11  S   UNL     1      25.450   3.625   6.604  0.00  0.00    +0.059 S 
ATOM     12  O   UNL     1      26.872   3.445   6.797  0.00  0.00    -0.153 OA
ATOM     13  O   UNL     1      24.524   3.491   7.691  0.00  0.00    -0.153 OA
BRANCH  11  14
ATOM     14  N   UNL     1      25.211   5.090   5.825  0.00  0.00    -0.187 NA
ATOM     15  H   UNL     1      24.232   5.332   5.674  0.00  0.00    +0.148 HD
BRANCH  14  21
ATOM     16  C   UNL     1      26.653   7.068   5.471  0.00  0.00    +0.035 C 
ATOM     17  C   UNL     1      25.554   8.113   5.266  0.00  0.00    +0.082 C 
ATOM     18  N   UNL     1      25.122   8.198   3.870  0.00  0.00    -0.316 NA
ATOM     19  C   UNL     1      24.692   6.901   3.352  0.00  0.00    +0.082 C 
ATOM     20  C   UNL     1      25.786   5.848   3.489  0.00  0.00    +0.035 C 
ATOM     21  C   UNL     1      26.238   5.689   4.937  0.00  0.00    +0.079 C 
ATOM     22  H   UNL     1      25.893   8.550   3.298  0.00  0.00    +0.122 HD
ENDBRANCH  14  21
ENDBRANCH  11  14
ENDBRANCH   1  11
BRANCH   5  23
ATOM     23  S   UNL     1      26.743  -0.699   3.595  0.00  0.00    +0.027 S 
ATOM     24  O   UNL     1      26.193  -2.039   3.689  0.00  0.00    -0.164 OA
ATOM     25  O   UNL     1      27.217  -0.200   2.317  0.00  0.00    -0.164 OA
BRANCH  23  26
ATOM     26  C   UNL     1      28.084  -0.606   4.727  0.00  0.00    +0.112 A 
ATOM     27  C   UNL     1      27.886  -0.212   6.050  0.00  0.00    +0.030 A 
ATOM     28  C   UNL     1      29.000  -0.061   6.876  0.00  0.00    +0.022 A 
ATOM     29  C   UNL     1      30.252  -0.305   6.341  0.00  0.00    +0.111 A 
ATOM     30  N   UNL     1      30.466  -0.685   5.060  0.00  0.00    -0.261 NA
ATOM     31  C   UNL     1      29.373  -0.814   4.269  0.00  0.00    +0.138 A 
ENDBRANCH  23  26
ENDBRANCH   5  23
TORSDOF 6
ENDMDL
MODEL 4
REMARK VINA RESULT:    -4.089      3.105      4.735
REMARK INTER + INTRA:          -6.163
REMARK INTER:                  -5.833
REMARK INTRA:                  -0.330
REMARK UNBOUND:                -0.640
REMARK  Name = 
REMARK  6 active torsions:
REMARK  status: ('A' for Active; 'I' for Inactive)
REMARK    1  A    between atoms: C_6  and  N_7
REMARK    2  A    between atoms: N_7  and  S_8
REMARK    3  A    between atoms: S_8  and  C_11
REMARK    4  A    between atoms: C_12  and  C_26
REMARK    5  A    between atoms: C_15  and  S_17
REMARK    6  A    between atoms: S_17  and  C_20
REMARK                            x       y       z     vdW  Elec       q    Type
REMARK                         _______ _______ _______ _____ _____    ______ ____
ROOT
ATOM      1  C   UNL     1      25.198   2.641   5.561  0.00  0.00    +0.119 A 
ATOM      2  C   UNL     1      24.354   2.361   4.468  0.00  0.00    +0.081 A 
ATOM      3  C   UNL     1      24.819   1.455   3.489  0.00  0.00    +0.016 A 
ATOM      4  C   UNL     1      26.101   0.905   3.551  0.00  0.00    +0.028 A 
ATOM      5  C   UNL     1      26.929   1.223   4.622  0.00  0.00    +0.095 A 
ATOM      6  C   UNL     1      26.470   2.043   5.651  0.00  0.00    +0.056 A 
ENDROOT
BRANCH   2   7
ATOM      7  C   UNL     1      23.014   3.009   4.177  0.00  0.00    +0.419 C 
ATOM      8  F   UNL     1      22.984   4.362   4.149  0.00  0.00    -0.166 F 
ATOM      9  F   UNL     1      22.575   2.649   2.932  0.00  0.00    -0.166 F 
ATOM     10  F   UNL     1      22.042   2.605   5.035  0.00  0.00    -0.166 F 
ENDBRANCH   2   7
BRANCH   1  11
ATOM     11  S   UNL     1      24.758   3.809   6.851  0.00  0.00    +0.059 S 
ATOM     12  O   UNL     1      25.841   3.828   7.809  0.00  0.00    -0.153 OA
ATOM     13  O   UNL     1      23.421   3.466   7.240  0.00  0.00    -0.153 OA
BRANCH  11  14
ATOM     14  N   UNL     1      24.759   5.274   6.034  0.00  0.00    -0.187 NA
ATOM     15  H   UNL     1      23.832   5.619   5.788  0.00  0.00    +0.148 HD
BRANCH  14  21
ATOM     16  C   UNL     1      26.323   7.154   5.668  0.00  0.00    +0.035 C 
ATOM     17  C   UNL     1      25.311   8.198   5.192  0.00  0.00    +0.082 C 
ATOM     18  N   UNL     1      25.081   8.130   3.748  0.00  0.00    -0.316 NA
ATOM     19  C   UNL     1      24.668   6.794   3.324  0.00  0.00    +0.082 C 
ATOM     20  C   UNL     1      25.684   5.733   3.734  0.00  0.00    +0.035 C 
ATOM     21  C   UNL     1      25.925   5.734   5.239  0.00  0.00    +0.079 C 
ATOM     22  H   UNL     1      25.938   8.390   3.256  0.00  0.00    +0.122 HD
ENDBRANCH  14  21
ENDBRANCH  11  14
ENDBRANCH   1  11
BRANCH   5  23
ATOM     23  S   UNL     1      28.657   0.818   4.557  0.00  0.00    +0.027 S 
ATOM     24  O   UNL     1      29.255   1.638   3.519  0.00  0.00    -0.164 OA
ATOM     25  O   UNL     1      29.140   0.913   5.922  0.00  0.00    -0.164 OA
BRANCH  23  26
ATOM     26  C   UNL     1      28.824  -0.859   4.055  0.00  0.00    +0.112 A 
ATOM     27  C   UNL     1      27.721  -1.710   4.002  0.00  0.00    +0.030 A 
ATOM     28  C   UNL     1      27.929  -3.054   3.693  0.00  0.00    +0.022 A 
ATOM     29  C   UNL     1      29.223  -3.481   3.458  0.00  0.00    +0.111 A 
ATOM     30  N   UNL     1      30.307  -2.673   3.508  0.00  0.00    -0.261 NA
ATOM     31  C   UNL     1      30.088  -1.373   3.821  0.00  0.00    +0.138 A 
ENDBRANCH  23  26
ENDBRANCH   5  23
TORSDOF 6
ENDMDL
MODEL 5
REMARK VINA RESULT:    -3.608      3.781      6.709
REMARK INTER + INTRA:          -5.514
REMARK INTER:                  -6.391
REMARK INTRA:                   0.878
REMARK UNBOUND:                -0.640
REMARK  Name = 
REMARK  6 active torsions:
REMARK  status: ('A' for Active; 'I' for Inactive)
REMARK    1  A    between atoms: C_6  and  N_7
REMARK    2  A    between atoms: N_7  and  S_8
REMARK    3  A    between atoms: S_8  and  C_11
REMARK    4  A    between atoms: C_12  and  C_26
REMARK    5  A    between atoms: C_15  and  S_17
REMARK    6  A    between atoms: S_17  and  C_20
REMARK                            x       y       z     vdW  Elec       q    Type
REMARK                         _______ _______ _______ _____ _____    ______ ____
ROOT
ATOM      1  C   UNL     1      27.493   0.430   4.860  0.00  0.00    +0.119 A 
ATOM      2  C   UNL     1      28.675   0.545   4.102  0.00  0.00    +0.081 A 
ATOM      3  C   UNL     1      29.514   1.655   4.349  0.00  0.00    +0.016 A 
ATOM      4  C   UNL     1      29.159   2.651   5.260  0.00  0.00    +0.028 A 
ATOM      5  C   UNL     1      27.971   2.533   5.973  0.00  0.00    +0.095 A 
ATOM      6  C   UNL     1      27.163   1.408   5.818  0.00  0.00    +0.056 A 
ENDROOT
BRANCH   2   7
ATOM      7  C   UNL     1      29.105  -0.360   2.963  0.00  0.00    +0.419 C 
ATOM      8  F   UNL     1      28.217  -0.541   1.958  0.00  0.00    -0.166 F 
ATOM      9  F   UNL     1      30.204   0.159   2.336  0.00  0.00    -0.166 F 
ATOM     10  F   UNL     1      29.481  -1.593   3.392  0.00  0.00    -0.166 F 
ENDBRANCH   2   7
BRANCH   1  11
ATOM     11  S   UNL     1      26.311  -0.899   4.617  0.00  0.00    +0.059 S 
ATOM     12  O   UNL     1      26.420  -1.791   5.751  0.00  0.00    -0.153 OA
ATOM     13  O   UNL     1      26.525  -1.363   3.278  0.00  0.00    -0.153 OA
BRANCH  11  14
ATOM     14  N   UNL     1      24.839  -0.102   4.721  0.00  0.00    -0.187 NA
ATOM     15  H   UNL     1      24.272  -0.368   5.526  0.00  0.00    +0.148 HD
BRANCH  14  21
ATOM     16  C   UNL     1      25.193   1.125   2.603  0.00  0.00    +0.035 C 
ATOM     17  C   UNL     1      25.724   2.435   3.190  0.00  0.00    +0.082 C 
ATOM     18  N   UNL     1      24.649   3.367   3.532  0.00  0.00    -0.316 NA
ATOM     19  C   UNL     1      23.672   2.766   4.437  0.00  0.00    +0.082 C 
ATOM     20  C   UNL     1      23.080   1.486   3.857  0.00  0.00    +0.035 C 
ATOM     21  C   UNL     1      24.161   0.462   3.527  0.00  0.00    +0.079 C 
ATOM     22  H   UNL     1      24.176   3.667   2.677  0.00  0.00    +0.122 HD
ENDBRANCH  14  21
ENDBRANCH  11  14
ENDBRANCH   1  11
BRANCH   5  23
ATOM     23  S   UNL     1      27.335   3.926   6.874  0.00  0.00    +0.027 S 
ATOM     24  O   UNL     1      26.330   3.425   7.793  0.00  0.00    -0.164 OA
ATOM     25  O   UNL     1      28.495   4.633   7.385  0.00  0.00    -0.164 OA
BRANCH  23  26
ATOM     26  C   UNL     1      26.519   5.000   5.746  0.00  0.00    +0.112 A 
ATOM     27  C   UNL     1      27.204   5.585   4.682  0.00  0.00    +0.030 A 
ATOM     28  C   UNL     1      26.529   6.505   3.880  0.00  0.00    +0.022 A 
ATOM     29  C   UNL     1      25.211   6.798   4.181  0.00  0.00    +0.111 A 
ATOM     30  N   UNL     1      24.530   6.243   5.210  0.00  0.00    -0.261 NA
ATOM     31  C   UNL     1      25.205   5.361   5.986  0.00  0.00    +0.138 A 
ENDBRANCH  23  26
ENDBRANCH   5  23
TORSDOF 6
ENDMDL
