REMARK  Name = 
REMARK  6 active torsions:
REMARK  status: ('A' for Active; 'I' for Inactive)
REMARK    1  A    between atoms: C_4  and  N_7
REMARK    2  A    between atoms: N_7  and  S_8
REMARK    3  A    between atoms: S_8  and  C_11
REMARK    4  A    between atoms: C_12  and  C_26
REMARK    5  A    between atoms: C_15  and  S_17
REMARK    6  A    between atoms: S_17  and  C_20
REMARK                            x       y       z     vdW  Elec       q    Type
REMARK                         _______ _______ _______ _____ _____    ______ ____
ROOT
ATOM      1  C   UNL     1       5.379  -1.374  -0.627  0.00  0.00    +0.119 A 
ATOM      2  C   UNL     1       5.997  -0.139  -0.906  0.00  0.00    +0.081 A 
ATOM      3  C   UNL     1       7.296  -0.166  -1.476  0.00  0.00    +0.016 A 
ATOM      4  C   UNL     1       7.980  -1.361  -1.698  0.00  0.00    +0.028 A 
ATOM      5  C   UNL     1       7.367  -2.567  -1.374  0.00  0.00    +0.095 A 
ATOM      6  C   UNL     1       6.055  -2.581  -0.895  0.00  0.00    +0.056 A 
ENDROOT
BRANCH   2   7
ATOM      7  C   UNL     1       5.446   1.233  -0.583  0.00  0.00    +0.419 C 
ATOM      8  F   UNL     1       4.248   1.272   0.039  0.00  0.00    -0.166 F 
ATOM      9  F   UNL     1       6.285   1.887   0.275  0.00  0.00    -0.166 F 
ATOM     10  F   UNL     1       5.351   2.032  -1.678  0.00  0.00    -0.166 F 
ENDBRANCH   2   7
BRANCH   1  11
ATOM     11  S   UNL     1       3.738  -1.525   0.102  0.00  0.00    +0.059 S 
ATOM     12  O   UNL     1       3.440  -2.931   0.232  0.00  0.00    -0.153 OA
ATOM     13  O   UNL     1       2.884  -0.653  -0.679  0.00  0.00    -0.153 OA
BRANCH  11  14
ATOM     14  N   UNL     1       3.937  -0.883   1.666  0.00  0.00    -0.187 NA
ATOM     15  H   UNL     1       4.482  -0.023   1.669  0.00  0.00    +0.148 HD
BRANCH  14  19
ATOM     16  O   UNL     1       6.242  -2.481   4.781  0.00  0.00    -0.380 OA
ATOM     17  C   UNL     1       4.945  -2.030   5.170  0.00  0.00    +0.161 C 
ATOM     18  C   UNL     1       4.345  -1.115   4.105  0.00  0.00    +0.048 C 
ATOM     19  C   UNL     1       4.325  -1.832   2.749  0.00  0.00    +0.081 C 
ATOM     20  C   UNL     1       5.690  -2.428   2.448  0.00  0.00    +0.048 C 
ATOM     21  C   UNL     1       6.201  -3.263   3.595  0.00  0.00    +0.161 C 
ENDBRANCH  14  19
ENDBRANCH  11  14
ENDBRANCH   1  11
BRANCH   5  22
ATOM     22  S   UNL     1       8.316  -4.075  -1.312  0.00  0.00    +0.025 S 
ATOM     23  O   UNL     1       9.687  -3.727  -1.657  0.00  0.00    -0.164 OA
ATOM     24  O   UNL     1       8.025  -4.675  -0.024  0.00  0.00    -0.164 OA
BRANCH  22  25
ATOM     25  C   UNL     1       7.720  -5.166  -2.574  0.00  0.00    +0.094 A 
ATOM     26  C   UNL     1       8.300  -5.130  -3.845  0.00  0.00    +0.027 A 
ATOM     27  C   UNL     1       7.856  -6.015  -4.827  0.00  0.00    +0.002 A 
ATOM     28  C   UNL     1       6.858  -6.945  -4.529  0.00  0.00    +0.000 A 
ATOM     29  C   UNL     1       6.303  -6.997  -3.249  0.00  0.00    +0.002 A 
ATOM     30  C   UNL     1       6.735  -6.108  -2.264  0.00  0.00    +0.027 A 
ENDBRANCH  22  25
ENDBRANCH   5  22
TORSDOF 6
