MODEL 1
REMARK VINA RESULT:    -4.903      0.000      0.000
REMARK INTER + INTRA:          -7.072
REMARK INTER:                  -6.623
REMARK INTRA:                  -0.449
REMARK UNBOUND:                -0.449
REMARK  Name = 
REMARK  6 active torsions:
REMARK  status: ('A' for Active; 'I' for Inactive)
REMARK    1  A    between atoms: C_4  and  N_7
REMARK    2  A    between atoms: N_7  and  S_8
REMARK    3  A    between atoms: S_8  and  C_11
REMARK    4  A    between atoms: C_12  and  C_26
REMARK    5  A    between atoms: C_15  and  S_17
REMARK    6  A    between atoms: S_17  and  C_20
REMARK                            x       y       z     vdW  Elec       q    Type
REMARK                         _______ _______ _______ _____ _____    ______ ____
ROOT
ATOM      1  C   UNL     1      25.815   4.535   4.937  0.00  0.00    +0.119 A 
ATOM      2  C   UNL     1      24.817   5.529   4.961  0.00  0.00    +0.081 A 
ATOM      3  C   UNL     1      23.476   5.122   4.739  0.00  0.00    +0.016 A 
ATOM      4  C   UNL     1      23.146   3.800   4.439  0.00  0.00    +0.028 A 
ATOM      5  C   UNL     1      24.154   2.843   4.378  0.00  0.00    +0.095 A 
ATOM      6  C   UNL     1      25.472   3.192   4.680  0.00  0.00    +0.056 A 
ENDROOT
BRANCH   2   7
ATOM      7  C   UNL     1      25.037   7.017   5.122  0.00  0.00    +0.419 C 
ATOM      8  F   UNL     1      25.465   7.686   4.029  0.00  0.00    -0.166 F 
ATOM      9  F   UNL     1      23.862   7.634   5.448  0.00  0.00    -0.166 F 
ATOM     10  F   UNL     1      25.896   7.315   6.131  0.00  0.00    -0.166 F 
ENDBRANCH   2   7
BRANCH   1  11
ATOM     11  S   UNL     1      27.566   4.875   5.192  0.00  0.00    +0.059 S 
ATOM     12  O   UNL     1      27.821   4.837   6.612  0.00  0.00    -0.153 OA
ATOM     13  O   UNL     1      27.848   6.066   4.417  0.00  0.00    -0.153 OA
BRANCH  11  14
ATOM     14  N   UNL     1      28.339   3.533   4.484  0.00  0.00    -0.187 NA
ATOM     15  H   UNL     1      27.811   3.145   3.705  0.00  0.00    +0.148 HD
BRANCH  14  19
ATOM     16  O   UNL     1      29.016  -0.298   6.043  0.00  0.00    -0.380 OA
ATOM     17  C   UNL     1      30.180   0.353   5.535  0.00  0.00    +0.161 C 
ATOM     18  C   UNL     1      29.799   1.530   4.640  0.00  0.00    +0.048 C 
ATOM     19  C   UNL     1      28.884   2.495   5.405  0.00  0.00    +0.081 C 
ATOM     20  C   UNL     1      27.742   1.733   6.057  0.00  0.00    +0.048 C 
ATOM     21  C   UNL     1      28.240   0.562   6.866  0.00  0.00    +0.161 C 
ENDBRANCH  14  19
ENDBRANCH  11  14
ENDBRANCH   1  11
BRANCH   5  22
ATOM     22  S   UNL     1      23.835   1.239   3.668  0.00  0.00    +0.025 S 
ATOM     23  O   UNL     1      23.000   0.515   4.615  0.00  0.00    -0.164 OA
ATOM     24  O   UNL     1      23.354   1.489   2.323  0.00  0.00    -0.164 OA
BRANCH  22  25
ATOM     25  C   UNL     1      25.370   0.363   3.548  0.00  0.00    +0.094 A 
ATOM     26  C   UNL     1      25.575  -0.775   4.333  0.00  0.00    +0.027 A 
ATOM     27  C   UNL     1      26.769  -1.486   4.211  0.00  0.00    +0.002 A 
ATOM     28  C   UNL     1      27.736  -1.074   3.292  0.00  0.00    +0.000 A 
ATOM     29  C   UNL     1      27.513   0.046   2.489  0.00  0.00    +0.002 A 
ATOM     30  C   UNL     1      26.326   0.768   2.613  0.00  0.00    +0.027 A 
ENDBRANCH  22  25
ENDBRANCH   5  22
TORSDOF 6
ENDMDL
MODEL 2
REMARK VINA RESULT:    -4.757      2.206      4.174
REMARK INTER + INTRA:          -6.875
REMARK INTER:                  -7.774
REMARK INTRA:                   0.899
REMARK UNBOUND:                -0.449
REMARK  Name = 
REMARK  6 active torsions:
REMARK  status: ('A' for Active; 'I' for Inactive)
REMARK    1  A    between atoms: C_4  and  N_7
REMARK    2  A    between atoms: N_7  and  S_8
REMARK    3  A    between atoms: S_8  and  C_11
REMARK    4  A    between atoms: C_12  and  C_26
REMARK    5  A    between atoms: C_15  and  S_17
REMARK    6  A    between atoms: S_17  and  C_20
REMARK                            x       y       z     vdW  Elec       q    Type
REMARK                         _______ _______ _______ _____ _____    ______ ____
ROOT
ATOM      1  C   UNL     1      25.162   4.583   4.929  0.00  0.00    +0.119 A 
ATOM      2  C   UNL     1      25.539   5.856   4.456  0.00  0.00    +0.081 A 
ATOM      3  C   UNL     1      26.921   6.098   4.245  0.00  0.00    +0.016 A 
ATOM      4  C   UNL     1      27.892   5.146   4.553  0.00  0.00    +0.028 A 
ATOM      5  C   UNL     1      27.500   3.912   5.061  0.00  0.00    +0.095 A 
ATOM      6  C   UNL     1      26.143   3.608   5.196  0.00  0.00    +0.056 A 
ENDROOT
BRANCH   2   7
ATOM      7  C   UNL     1      24.618   7.034   4.221  0.00  0.00    +0.419 C 
ATOM      8  F   UNL     1      23.835   7.405   5.256  0.00  0.00    -0.166 F 
ATOM      9  F   UNL     1      25.350   8.154   3.942  0.00  0.00    -0.166 F 
ATOM     10  F   UNL     1      23.802   6.857   3.149  0.00  0.00    -0.166 F 
ENDBRANCH   2   7
BRANCH   1  11
ATOM     11  S   UNL     1      23.455   4.107   5.258  0.00  0.00    +0.059 S 
ATOM     12  O   UNL     1      22.597   5.103   4.663  0.00  0.00    -0.153 OA
ATOM     13  O   UNL     1      23.397   3.827   6.678  0.00  0.00    -0.153 OA
BRANCH  11  14
ATOM     14  N   UNL     1      23.270   2.661   4.380  0.00  0.00    -0.187 NA
ATOM     15  H   UNL     1      22.458   2.124   4.678  0.00  0.00    +0.148 HD
BRANCH  14  19
ATOM     16  O   UNL     1      25.526  -0.803   3.685  0.00  0.00    -0.380 OA
ATOM     17  C   UNL     1      25.608   0.179   2.652  0.00  0.00    +0.161 C 
ATOM     18  C   UNL     1      24.475   1.196   2.777  0.00  0.00    +0.048 C 
ATOM     19  C   UNL     1      24.488   1.825   4.176  0.00  0.00    +0.081 C 
ATOM     20  C   UNL     1      24.556   0.743   5.240  0.00  0.00    +0.048 C 
ATOM     21  C   UNL     1      25.676  -0.231   4.977  0.00  0.00    +0.161 C 
ENDBRANCH  14  19
ENDBRANCH  11  14
ENDBRANCH   1  11
BRANCH   5  22
ATOM     22  S   UNL     1      28.699   2.811   5.787  0.00  0.00    +0.025 S 
ATOM     23  O   UNL     1      29.993   3.471   5.691  0.00  0.00    -0.164 OA
ATOM     24  O   UNL     1      28.169   2.446   7.087  0.00  0.00    -0.164 OA
BRANCH  22  25
ATOM     25  C   UNL     1      28.786   1.344   4.798  0.00  0.00    +0.094 A 
ATOM     26  C   UNL     1      28.697   1.445   3.407  0.00  0.00    +0.027 A 
ATOM     27  C   UNL     1      28.803   0.294   2.627  0.00  0.00    +0.002 A 
ATOM     28  C   UNL     1      29.023  -0.943   3.235  0.00  0.00    +0.000 A 
ATOM     29  C   UNL     1      29.142  -1.035   4.623  0.00  0.00    +0.002 A 
ATOM     30  C   UNL     1      29.027   0.111   5.411  0.00  0.00    +0.027 A 
ENDBRANCH  22  25
ENDBRANCH   5  22
TORSDOF 6
ENDMDL
MODEL 3
REMARK VINA RESULT:    -4.422      3.654      6.793
REMARK INTER + INTRA:          -6.422
REMARK INTER:                  -6.240
REMARK INTRA:                  -0.182
REMARK UNBOUND:                -0.449
REMARK  Name = 
REMARK  6 active torsions:
REMARK  status: ('A' for Active; 'I' for Inactive)
REMARK    1  A    between atoms: C_4  and  N_7
REMARK    2  A    between atoms: N_7  and  S_8
REMARK    3  A    between atoms: S_8  and  C_11
REMARK    4  A    between atoms: C_12  and  C_26
REMARK    5  A    between atoms: C_15  and  S_17
REMARK    6  A    between atoms: S_17  and  C_20
REMARK                            x       y       z     vdW  Elec       q    Type
REMARK                         _______ _______ _______ _____ _____    ______ ____
ROOT
ATOM      1  C   UNL     1      27.353   0.588   4.799  0.00  0.00    +0.119 A 
ATOM      2  C   UNL     1      28.535   0.546   4.035  0.00  0.00    +0.081 A 
ATOM      3  C   UNL     1      29.475   1.593   4.217  0.00  0.00    +0.016 A 
ATOM      4  C   UNL     1      29.226   2.669   5.069  0.00  0.00    +0.028 A 
ATOM      5  C   UNL     1      28.032   2.711   5.781  0.00  0.00    +0.095 A 
ATOM      6  C   UNL     1      27.124   1.653   5.693  0.00  0.00    +0.056 A 
ENDROOT
BRANCH   2   7
ATOM      7  C   UNL     1      28.877  -0.470   2.966  0.00  0.00    +0.419 C 
ATOM      8  F   UNL     1      28.002  -0.589   1.944  0.00  0.00    -0.166 F 
ATOM      9  F   UNL     1      30.053  -0.134   2.357  0.00  0.00    -0.166 F 
ATOM     10  F   UNL     1      29.071  -1.717   3.470  0.00  0.00    -0.166 F 
ENDBRANCH   2   7
BRANCH   1  11
ATOM     11  S   UNL     1      26.051  -0.653   4.690  0.00  0.00    +0.059 S 
ATOM     12  O   UNL     1      26.405  -1.743   5.567  0.00  0.00    -0.153 OA
ATOM     13  O   UNL     1      25.844  -0.876   3.273  0.00  0.00    -0.153 OA
BRANCH  11  14
ATOM     14  N   UNL     1      24.694   0.134   5.352  0.00  0.00    -0.187 NA
ATOM     15  H   UNL     1      23.843  -0.418   5.269  0.00  0.00    +0.148 HD
BRANCH  14  19
ATOM     16  O   UNL     1      22.633   3.726   4.701  0.00  0.00    -0.380 OA
ATOM     17  C   UNL     1      23.558   3.758   5.787  0.00  0.00    +0.161 C 
ATOM     18  C   UNL     1      23.951   2.344   6.209  0.00  0.00    +0.048 C 
ATOM     19  C   UNL     1      24.502   1.572   5.003  0.00  0.00    +0.081 C 
ATOM     20  C   UNL     1      23.555   1.694   3.822  0.00  0.00    +0.048 C 
ATOM     21  C   UNL     1      23.196   3.131   3.539  0.00  0.00    +0.161 C 
ENDBRANCH  14  19
ENDBRANCH  11  14
ENDBRANCH   1  11
BRANCH   5  22
ATOM     22  S   UNL     1      27.521   4.211   6.599  0.00  0.00    +0.025 S 
ATOM     23  O   UNL     1      26.517   3.834   7.585  0.00  0.00    -0.164 OA
ATOM     24  O   UNL     1      28.742   4.867   7.025  0.00  0.00    -0.164 OA
BRANCH  22  25
ATOM     25  C   UNL     1      26.721   5.254   5.412  0.00  0.00    +0.094 A 
ATOM     26  C   UNL     1      26.524   4.789   4.109  0.00  0.00    +0.027 A 
ATOM     27  C   UNL     1      25.861   5.596   3.185  0.00  0.00    +0.002 A 
ATOM     28  C   UNL     1      25.377   6.847   3.572  0.00  0.00    +0.000 A 
ATOM     29  C   UNL     1      25.550   7.295   4.883  0.00  0.00    +0.002 A 
ATOM     30  C   UNL     1      26.222   6.497   5.810  0.00  0.00    +0.027 A 
ENDBRANCH  22  25
ENDBRANCH   5  22
TORSDOF 6
ENDMDL
