MODEL 1
REMARK VINA RESULT:    -7.377      0.000      0.000
REMARK INTER + INTRA:         -11.173
REMARK INTER:                  -9.965
REMARK INTRA:                  -1.208
REMARK UNBOUND:                -1.208
REMARK  Name = 
REMARK  6 active torsions:
REMARK  status: ('A' for Active; 'I' for Inactive)
REMARK    1  A    between atoms: C_4  and  N_7
REMARK    2  A    between atoms: N_7  and  S_8
REMARK    3  A    between atoms: S_8  and  C_11
REMARK    4  A    between atoms: C_12  and  C_26
REMARK    5  A    between atoms: C_15  and  S_17
REMARK    6  A    between atoms: S_17  and  C_20
REMARK                            x       y       z     vdW  Elec       q    Type
REMARK                         _______ _______ _______ _____ _____    ______ ____
ROOT
ATOM      1  C   UNL     1       0.229  -3.872  -1.426  0.00  0.00    +0.119 A 
ATOM      2  C   UNL     1       0.121  -5.262  -1.628  0.00  0.00    +0.081 A 
ATOM      3  C   UNL     1       1.320  -6.022  -1.637  0.00  0.00    +0.016 A 
ATOM      4  C   UNL     1       2.574  -5.423  -1.519  0.00  0.00    +0.028 A 
ATOM      5  C   UNL     1       2.658  -4.043  -1.365  0.00  0.00    +0.095 A 
ATOM      6  C   UNL     1       1.495  -3.276  -1.262  0.00  0.00    +0.056 A 
ENDROOT
BRANCH   2   7
ATOM      7  C   UNL     1      -1.149  -6.031  -1.919  0.00  0.00    +0.419 C 
ATOM      8  F   UNL     1      -1.803  -5.709  -3.056  0.00  0.00    -0.166 F 
ATOM      9  F   UNL     1      -0.872  -7.361  -2.063  0.00  0.00    -0.166 F 
ATOM     10  F   UNL     1      -2.053  -5.955  -0.907  0.00  0.00    -0.166 F 
ENDBRANCH   2   7
BRANCH   1  11
ATOM     11  S   UNL     1      -1.186  -2.758  -1.392  0.00  0.00    +0.059 S 
ATOM     12  O   UNL     1      -1.969  -3.073  -0.222  0.00  0.00    -0.153 OA
ATOM     13  O   UNL     1      -1.769  -2.829  -2.717  0.00  0.00    -0.153 OA
BRANCH  11  14
ATOM     14  N   UNL     1      -0.481  -1.226  -1.157  0.00  0.00    -0.187 NA
ATOM     15  H   UNL     1       0.459  -1.165  -1.542  0.00  0.00    +0.148 HD
BRANCH  14  19
ATOM     16  O   UNL     1       0.203   1.508   1.946  0.00  0.00    -0.380 OA
ATOM     17  C   UNL     1      -1.140   1.479   1.462  0.00  0.00    +0.161 C 
ATOM     18  C   UNL     1      -1.214   0.784   0.104  0.00  0.00    +0.048 C 
ATOM     19  C   UNL     1      -0.604  -0.620   0.200  0.00  0.00    +0.081 C 
ATOM     20  C   UNL     1       0.763  -0.557   0.862  0.00  0.00    +0.048 C 
ATOM     21  C   UNL     1       0.719   0.202   2.165  0.00  0.00    +0.161 C 
ENDBRANCH  14  19
ENDBRANCH  11  14
ENDBRANCH   1  11
BRANCH   5  22
ATOM     22  S   UNL     1       4.220  -3.206  -1.558  0.00  0.00    +0.025 S 
ATOM     23  O   UNL     1       4.771  -3.628  -2.838  0.00  0.00    -0.164 OA
ATOM     24  O   UNL     1       3.951  -1.801  -1.316  0.00  0.00    -0.164 OA
BRANCH  22  25
ATOM     25  C   UNL     1       5.325  -3.779  -0.298  0.00  0.00    +0.094 A 
ATOM     26  C   UNL     1       5.185  -3.302   1.008  0.00  0.00    +0.027 A 
ATOM     27  C   UNL     1       6.031  -3.782   2.008  0.00  0.00    +0.002 A 
ATOM     28  C   UNL     1       6.990  -4.751   1.705  0.00  0.00    +0.000 A 
ATOM     29  C   UNL     1       7.106  -5.246   0.405  0.00  0.00    +0.002 A 
ATOM     30  C   UNL     1       6.270  -4.763  -0.603  0.00  0.00    +0.027 A 
ENDBRANCH  22  25
ENDBRANCH   5  22
TORSDOF 6
ENDMDL
MODEL 2
REMARK VINA RESULT:    -7.237      2.923      5.111
REMARK INTER + INTRA:         -10.983
REMARK INTER:                 -10.263
REMARK INTRA:                  -0.720
REMARK UNBOUND:                -1.208
REMARK  Name = 
REMARK  6 active torsions:
REMARK  status: ('A' for Active; 'I' for Inactive)
REMARK    1  A    between atoms: C_4  and  N_7
REMARK    2  A    between atoms: N_7  and  S_8
REMARK    3  A    between atoms: S_8  and  C_11
REMARK    4  A    between atoms: C_12  and  C_26
REMARK    5  A    between atoms: C_15  and  S_17
REMARK    6  A    between atoms: S_17  and  C_20
REMARK                            x       y       z     vdW  Elec       q    Type
REMARK                         _______ _______ _______ _____ _____    ______ ____
ROOT
ATOM      1  C   UNL     1       0.374  -1.722  -0.263  0.00  0.00    +0.119 A 
ATOM      2  C   UNL     1       0.821  -0.860   0.758  0.00  0.00    +0.081 A 
ATOM      3  C   UNL     1       2.215  -0.816   1.021  0.00  0.00    +0.016 A 
ATOM      4  C   UNL     1       3.118  -1.639   0.349  0.00  0.00    +0.028 A 
ATOM      5  C   UNL     1       2.649  -2.514  -0.625  0.00  0.00    +0.095 A 
ATOM      6  C   UNL     1       1.296  -2.518  -0.971  0.00  0.00    +0.056 A 
ENDROOT
BRANCH   2   7
ATOM      7  C   UNL     1      -0.049  -0.023   1.671  0.00  0.00    +0.419 C 
ATOM      8  F   UNL     1      -1.168  -0.611   2.146  0.00  0.00    -0.166 F 
ATOM      9  F   UNL     1       0.645   0.323   2.796  0.00  0.00    -0.166 F 
ATOM     10  F   UNL     1      -0.429   1.152   1.103  0.00  0.00    -0.166 F 
ENDBRANCH   2   7
BRANCH   1  11
ATOM     11  S   UNL     1      -1.358  -1.907  -0.723  0.00  0.00    +0.059 S 
ATOM     12  O   UNL     1      -1.956  -0.593  -0.729  0.00  0.00    -0.153 OA
ATOM     13  O   UNL     1      -1.877  -2.956   0.130  0.00  0.00    -0.153 OA
BRANCH  11  14
ATOM     14  N   UNL     1      -1.285  -2.458  -2.332  0.00  0.00    -0.187 NA
ATOM     15  H   UNL     1      -1.576  -1.749  -3.002  0.00  0.00    +0.148 HD
BRANCH  14  19
ATOM     16  O   UNL     1      -2.272  -5.855  -4.581  0.00  0.00    -0.380 OA
ATOM     17  C   UNL     1      -1.345  -6.090  -3.522  0.00  0.00    +0.161 C 
ATOM     18  C   UNL     1      -0.738  -4.779  -3.029  0.00  0.00    +0.048 C 
ATOM     19  C   UNL     1      -1.852  -3.808  -2.617  0.00  0.00    +0.081 C 
ATOM     20  C   UNL     1      -2.896  -3.707  -3.716  0.00  0.00    +0.048 C 
ATOM     21  C   UNL     1      -3.377  -5.066  -4.158  0.00  0.00    +0.161 C 
ENDBRANCH  14  19
ENDBRANCH  11  14
ENDBRANCH   1  11
BRANCH   5  22
ATOM     22  S   UNL     1       3.696  -3.813  -1.254  0.00  0.00    +0.025 S 
ATOM     23  O   UNL     1       2.840  -4.964  -1.503  0.00  0.00    -0.164 OA
ATOM     24  O   UNL     1       4.450  -3.223  -2.343  0.00  0.00    -0.164 OA
BRANCH  22  25
ATOM     25  C   UNL     1       4.840  -4.277   0.017  0.00  0.00    +0.094 A 
ATOM     26  C   UNL     1       4.830  -5.586   0.507  0.00  0.00    +0.027 A 
ATOM     27  C   UNL     1       5.756  -5.961   1.480  0.00  0.00    +0.002 A 
ATOM     28  C   UNL     1       6.698  -5.039   1.939  0.00  0.00    +0.000 A 
ATOM     29  C   UNL     1       6.723  -3.741   1.426  0.00  0.00    +0.002 A 
ATOM     30  C   UNL     1       5.793  -3.356   0.458  0.00  0.00    +0.027 A 
ENDBRANCH  22  25
ENDBRANCH   5  22
TORSDOF 6
ENDMDL
MODEL 3
REMARK VINA RESULT:    -7.045      4.669      8.226
REMARK INTER + INTRA:         -10.724
REMARK INTER:                  -9.696
REMARK INTRA:                  -1.028
REMARK UNBOUND:                -1.208
REMARK  Name = 
REMARK  6 active torsions:
REMARK  status: ('A' for Active; 'I' for Inactive)
REMARK    1  A    between atoms: C_4  and  N_7
REMARK    2  A    between atoms: N_7  and  S_8
REMARK    3  A    between atoms: S_8  and  C_11
REMARK    4  A    between atoms: C_12  and  C_26
REMARK    5  A    between atoms: C_15  and  S_17
REMARK    6  A    between atoms: S_17  and  C_20
REMARK                            x       y       z     vdW  Elec       q    Type
REMARK                         _______ _______ _______ _____ _____    ______ ____
ROOT
ATOM      1  C   UNL     1       5.687  -5.792  -0.331  0.00  0.00    +0.119 A 
ATOM      2  C   UNL     1       6.240  -5.217   0.830  0.00  0.00    +0.081 A 
ATOM      3  C   UNL     1       5.654  -4.019   1.315  0.00  0.00    +0.016 A 
ATOM      4  C   UNL     1       4.611  -3.383   0.643  0.00  0.00    +0.028 A 
ATOM      5  C   UNL     1       4.110  -3.946  -0.526  0.00  0.00    +0.095 A 
ATOM      6  C   UNL     1       4.603  -5.171  -0.982  0.00  0.00    +0.056 A 
ENDROOT
BRANCH   2   7
ATOM      7  C   UNL     1       7.461  -5.706   1.579  0.00  0.00    +0.419 C 
ATOM      8  F   UNL     1       8.563  -5.957   0.840  0.00  0.00    -0.166 F 
ATOM      9  F   UNL     1       7.872  -4.760   2.476  0.00  0.00    -0.166 F 
ATOM     10  F   UNL     1       7.214  -6.821   2.315  0.00  0.00    -0.166 F 
ENDBRANCH   2   7
BRANCH   1  11
ATOM     11  S   UNL     1       6.309  -7.306  -1.087  0.00  0.00    +0.059 S 
ATOM     12  O   UNL     1       6.303  -8.338  -0.078  0.00  0.00    -0.153 OA
ATOM     13  O   UNL     1       7.536  -6.929  -1.758  0.00  0.00    -0.153 OA
BRANCH  11  14
ATOM     14  N   UNL     1       5.119  -7.692  -2.240  0.00  0.00    -0.187 NA
ATOM     15  H   UNL     1       4.728  -8.622  -2.103  0.00  0.00    +0.148 HD
BRANCH  14  19
ATOM     16  O   UNL     1       4.956  -8.073  -6.412  0.00  0.00    -0.380 OA
ATOM     17  C   UNL     1       4.431  -6.847  -5.904  0.00  0.00    +0.161 C 
ATOM     18  C   UNL     1       4.154  -6.952  -4.406  0.00  0.00    +0.048 C 
ATOM     19  C   UNL     1       5.426  -7.386  -3.667  0.00  0.00    +0.081 C 
ATOM     20  C   UNL     1       6.034  -8.607  -4.337  0.00  0.00    +0.048 C 
ATOM     21  C   UNL     1       6.206  -8.403  -5.821  0.00  0.00    +0.161 C 
ENDBRANCH  14  19
ENDBRANCH  11  14
ENDBRANCH   1  11
BRANCH   5  22
ATOM     22  S   UNL     1       3.034  -3.007  -1.593  0.00  0.00    +0.025 S 
ATOM     23  O   UNL     1       3.874  -2.404  -2.618  0.00  0.00    -0.164 OA
ATOM     24  O   UNL     1       1.965  -3.910  -1.974  0.00  0.00    -0.164 OA
BRANCH  22  25
ATOM     25  C   UNL     1       2.326  -1.683  -0.652  0.00  0.00    +0.094 A 
ATOM     26  C   UNL     1       1.060  -1.843  -0.084  0.00  0.00    +0.027 A 
ATOM     27  C   UNL     1       0.519  -0.815   0.688  0.00  0.00    +0.002 A 
ATOM     28  C   UNL     1       1.253   0.352   0.909  0.00  0.00    +0.000 A 
ATOM     29  C   UNL     1       2.531   0.494   0.364  0.00  0.00    +0.002 A 
ATOM     30  C   UNL     1       3.074  -0.526  -0.418  0.00  0.00    +0.027 A 
ENDBRANCH  22  25
ENDBRANCH   5  22
TORSDOF 6
ENDMDL
MODEL 4
REMARK VINA RESULT:    -7.030      3.463      6.989
REMARK INTER + INTRA:         -10.703
REMARK INTER:                  -9.005
REMARK INTRA:                  -1.698
REMARK UNBOUND:                -1.208
REMARK  Name = 
REMARK  6 active torsions:
REMARK  status: ('A' for Active; 'I' for Inactive)
REMARK    1  A    between atoms: C_4  and  N_7
REMARK    2  A    between atoms: N_7  and  S_8
REMARK    3  A    between atoms: S_8  and  C_11
REMARK    4  A    between atoms: C_12  and  C_26
REMARK    5  A    between atoms: C_15  and  S_17
REMARK    6  A    between atoms: S_17  and  C_20
REMARK                            x       y       z     vdW  Elec       q    Type
REMARK                         _______ _______ _______ _____ _____    ______ ____
ROOT
ATOM      1  C   UNL     1       0.994  -1.841  -0.350  0.00  0.00    +0.119 A 
ATOM      2  C   UNL     1       0.271  -1.041   0.556  0.00  0.00    +0.081 A 
ATOM      3  C   UNL     1      -1.125  -1.268   0.668  0.00  0.00    +0.016 A 
ATOM      4  C   UNL     1      -1.787  -2.201  -0.130  0.00  0.00    +0.028 A 
ATOM      5  C   UNL     1      -1.060  -2.950  -1.049  0.00  0.00    +0.095 A 
ATOM      6  C   UNL     1       0.329  -2.814  -1.122  0.00  0.00    +0.056 A 
ENDROOT
BRANCH   2   7
ATOM      7  C   UNL     1       0.820   0.107   1.375  0.00  0.00    +0.419 C 
ATOM      8  F   UNL     1       1.202   1.208   0.693  0.00  0.00    -0.166 F 
ATOM      9  F   UNL     1      -0.133   0.568   2.239  0.00  0.00    -0.166 F 
ATOM     10  F   UNL     1       1.870  -0.260   2.156  0.00  0.00    -0.166 F 
ENDBRANCH   2   7
BRANCH   1  11
ATOM     11  S   UNL     1       2.768  -1.683  -0.624  0.00  0.00    +0.059 S 
ATOM     12  O   UNL     1       3.443  -2.215   0.535  0.00  0.00    -0.153 OA
ATOM     13  O   UNL     1       2.976  -0.311  -1.041  0.00  0.00    -0.153 OA
BRANCH  11  14
ATOM     14  N   UNL     1       3.064  -2.731  -1.932  0.00  0.00    -0.187 NA
ATOM     15  H   UNL     1       2.242  -2.866  -2.518  0.00  0.00    +0.148 HD
BRANCH  14  19
ATOM     16  O   UNL     1       4.870  -6.434  -2.704  0.00  0.00    -0.380 OA
ATOM     17  C   UNL     1       5.766  -5.414  -2.266  0.00  0.00    +0.161 C 
ATOM     18  C   UNL     1       5.126  -4.034  -2.399  0.00  0.00    +0.048 C 
ATOM     19  C   UNL     1       3.794  -3.998  -1.639  0.00  0.00    +0.081 C 
ATOM     20  C   UNL     1       2.935  -5.190  -2.026  0.00  0.00    +0.048 C 
ATOM     21  C   UNL     1       3.693  -6.488  -1.908  0.00  0.00    +0.161 C 
ENDBRANCH  14  19
ENDBRANCH  11  14
ENDBRANCH   1  11
BRANCH   5  22
ATOM     22  S   UNL     1      -1.895  -3.887  -2.315  0.00  0.00    +0.025 S 
ATOM     23  O   UNL     1      -3.245  -4.142  -1.831  0.00  0.00    -0.164 OA
ATOM     24  O   UNL     1      -1.697  -3.153  -3.549  0.00  0.00    -0.164 OA
BRANCH  22  25
ATOM     25  C   UNL     1      -1.091  -5.458  -2.474  0.00  0.00    +0.094 A 
ATOM     26  C   UNL     1      -0.548  -5.831  -3.706  0.00  0.00    +0.027 A 
ATOM     27  C   UNL     1       0.118  -7.051  -3.821  0.00  0.00    +0.002 A 
ATOM     28  C   UNL     1       0.261  -7.876  -2.704  0.00  0.00    +0.000 A 
ATOM     29  C   UNL     1      -0.257  -7.485  -1.468  0.00  0.00    +0.002 A 
ATOM     30  C   UNL     1      -0.934  -6.270  -1.347  0.00  0.00    +0.027 A 
ENDBRANCH  22  25
ENDBRANCH   5  22
TORSDOF 6
ENDMDL
MODEL 5
REMARK VINA RESULT:    -7.012      2.073      2.624
REMARK INTER + INTRA:         -10.679
REMARK INTER:                 -10.642
REMARK INTRA:                  -0.037
REMARK UNBOUND:                -1.208
REMARK  Name = 
REMARK  6 active torsions:
REMARK  status: ('A' for Active; 'I' for Inactive)
REMARK    1  A    between atoms: C_4  and  N_7
REMARK    2  A    between atoms: N_7  and  S_8
REMARK    3  A    between atoms: S_8  and  C_11
REMARK    4  A    between atoms: C_12  and  C_26
REMARK    5  A    between atoms: C_15  and  S_17
REMARK    6  A    between atoms: S_17  and  C_20
REMARK                            x       y       z     vdW  Elec       q    Type
REMARK                         _______ _______ _______ _____ _____    ______ ____
ROOT
ATOM      1  C   UNL     1       1.067  -2.492  -0.555  0.00  0.00    +0.119 A 
ATOM      2  C   UNL     1      -0.024  -3.199  -1.098  0.00  0.00    +0.081 A 
ATOM      3  C   UNL     1       0.231  -4.477  -1.658  0.00  0.00    +0.016 A 
ATOM      4  C   UNL     1       1.520  -5.004  -1.737  0.00  0.00    +0.028 A 
ATOM      5  C   UNL     1       2.589  -4.269  -1.234  0.00  0.00    +0.095 A 
ATOM      6  C   UNL     1       2.362  -3.048  -0.596  0.00  0.00    +0.056 A 
ENDROOT
BRANCH   2   7
ATOM      7  C   UNL     1      -1.446  -2.696  -1.220  0.00  0.00    +0.419 C 
ATOM      8  F   UNL     1      -1.605  -1.438  -1.686  0.00  0.00    -0.166 F 
ATOM      9  F   UNL     1      -2.143  -3.467  -2.108  0.00  0.00    -0.166 F 
ATOM     10  F   UNL     1      -2.134  -2.777  -0.051  0.00  0.00    -0.166 F 
ENDBRANCH   2   7
BRANCH   1  11
ATOM     11  S   UNL     1       0.925  -0.857   0.189  0.00  0.00    +0.059 S 
ATOM     12  O   UNL     1       0.595   0.078  -0.859  0.00  0.00    -0.153 OA
ATOM     13  O   UNL     1       2.123  -0.687   0.987  0.00  0.00    -0.153 OA
BRANCH  11  14
ATOM     14  N   UNL     1      -0.429  -1.001   1.211  0.00  0.00    -0.187 NA
ATOM     15  H   UNL     1      -1.092  -1.701   0.884  0.00  0.00    +0.148 HD
BRANCH  14  19
ATOM     16  O   UNL     1      -1.519   3.046   1.132  0.00  0.00    -0.380 OA
ATOM     17  C   UNL     1      -2.607   2.132   0.994  0.00  0.00    +0.161 C 
ATOM     18  C   UNL     1      -2.104   0.738   0.628  0.00  0.00    +0.048 C 
ATOM     19  C   UNL     1      -1.078   0.262   1.665  0.00  0.00    +0.081 C 
ATOM     20  C   UNL     1      -0.023   1.332   1.892  0.00  0.00    +0.048 C 
ATOM     21  C   UNL     1      -0.643   2.675   2.188  0.00  0.00    +0.161 C 
ENDBRANCH  14  19
ENDBRANCH  11  14
ENDBRANCH   1  11
BRANCH   5  22
ATOM     22  S   UNL     1       4.266  -4.733  -1.620  0.00  0.00    +0.025 S 
ATOM     23  O   UNL     1       4.229  -6.115  -2.076  0.00  0.00    -0.164 OA
ATOM     24  O   UNL     1       4.774  -3.696  -2.497  0.00  0.00    -0.164 OA
BRANCH  22  25
ATOM     25  C   UNL     1       5.216  -4.702  -0.125  0.00  0.00    +0.094 A 
ATOM     26  C   UNL     1       5.290  -5.851   0.668  0.00  0.00    +0.027 A 
ATOM     27  C   UNL     1       6.068  -5.837   1.825  0.00  0.00    +0.002 A 
ATOM     28  C   UNL     1       6.786  -4.690   2.170  0.00  0.00    +0.000 A 
ATOM     29  C   UNL     1       6.732  -3.555   1.359  0.00  0.00    +0.002 A 
ATOM     30  C   UNL     1       5.948  -3.558   0.205  0.00  0.00    +0.027 A 
ENDBRANCH  22  25
ENDBRANCH   5  22
TORSDOF 6
ENDMDL
