MODEL 1
REMARK VINA RESULT:    -7.847      0.000      0.000
REMARK INTER + INTRA:          -9.509
REMARK INTER:                  -9.224
REMARK INTRA:                  -0.285
REMARK UNBOUND:                -0.285
REMARK  Name = 
REMARK  3 active torsions:
REMARK  status: ('A' for Active; 'I' for Inactive)
REMARK    1  A    between atoms: N_4  and  C_5
REMARK    2  A    between atoms: C_15  and  S_16
REMARK    3  A    between atoms: S_16  and  C_19
REMARK                            x       y       z     vdW  Elec       q    Type
REMARK                         _______ _______ _______ _____ _____    ______ ____
ROOT
ATOM      1  O   UNL     1       5.542  -6.464  -1.559  0.00  0.00    -0.150 OA
ATOM      2  S   UNL     1       4.779  -6.091  -0.394  0.00  0.00    +0.078 S 
ATOM      3  O   UNL     1       3.773  -6.931   0.210  0.00  0.00    -0.150 OA
ATOM      4  N   UNL     1       5.838  -5.518   0.813  0.00  0.00    -0.165 N 
ATOM      5  C   UNL     1       5.716  -4.122   1.010  0.00  0.00    +0.268 C 
ATOM      6  O   UNL     1       6.361  -3.424   1.769  0.00  0.00    -0.268 OA
ATOM      7  C   UNL     1       4.646  -3.582   0.168  0.00  0.00    +0.067 A 
ATOM      8  C   UNL     1       4.174  -2.280   0.214  0.00  0.00    +0.042 A 
ATOM      9  C   UNL     1       3.136  -1.938  -0.657  0.00  0.00    +0.094 A 
ATOM     10  C   UNL     1       2.570  -2.892  -1.532  0.00  0.00    +0.029 A 
ATOM     11  C   UNL     1       3.042  -4.211  -1.540  0.00  0.00    +0.031 A 
ATOM     12  C   UNL     1       4.075  -4.523  -0.673  0.00  0.00    +0.121 A 
ENDROOT
BRANCH   4  13
ATOM     13  C   UNL     1       6.413  -6.527   1.741  0.00  0.00    +0.104 C 
ATOM     14  C   UNL     1       5.611  -6.591   3.045  0.00  0.00    +0.039 C 
ATOM     15  C   UNL     1       6.073  -5.580   4.090  0.00  0.00    +0.083 C 
ATOM     16  N   UNL     1       7.506  -5.678   4.344  0.00  0.00    -0.316 NA
ATOM     17  C   UNL     1       8.280  -5.420   3.133  0.00  0.00    +0.083 C 
ATOM     18  C   UNL     1       7.915  -6.364   1.988  0.00  0.00    +0.039 C 
ATOM     19  H   UNL     1       7.732  -6.601   4.711  0.00  0.00    +0.122 HD
ENDBRANCH   4  13
BRANCH   9  20
ATOM     20  S   UNL     1       2.451  -0.291  -0.582  0.00  0.00    +0.025 S 
ATOM     21  O   UNL     1       3.353   0.500   0.236  0.00  0.00    -0.164 OA
ATOM     22  O   UNL     1       2.154   0.110  -1.946  0.00  0.00    -0.164 OA
BRANCH  20  23
ATOM     23  C   UNL     1       0.911  -0.428   0.293  0.00  0.00    +0.094 A 
ATOM     24  C   UNL     1       0.790   0.144   1.564  0.00  0.00    +0.027 A 
ATOM     25  C   UNL     1      -0.429   0.069   2.237  0.00  0.00    +0.002 A 
ATOM     26  C   UNL     1      -1.520  -0.562   1.637  0.00  0.00    +0.000 A 
ATOM     27  C   UNL     1      -1.396  -1.118   0.362  0.00  0.00    +0.002 A 
ATOM     28  C   UNL     1      -0.181  -1.051  -0.317  0.00  0.00    +0.027 A 
ENDBRANCH  20  23
ENDBRANCH   9  20
TORSDOF 3
ENDMDL
MODEL 2
REMARK VINA RESULT:    -7.831      1.368      1.753
REMARK INTER + INTRA:          -9.490
REMARK INTER:                  -9.310
REMARK INTRA:                  -0.180
REMARK UNBOUND:                -0.285
REMARK  Name = 
REMARK  3 active torsions:
REMARK  status: ('A' for Active; 'I' for Inactive)
REMARK    1  A    between atoms: N_4  and  C_5
REMARK    2  A    between atoms: C_15  and  S_16
REMARK    3  A    between atoms: S_16  and  C_19
REMARK                            x       y       z     vdW  Elec       q    Type
REMARK                         _______ _______ _______ _____ _____    ______ ____
ROOT
ATOM      1  O   UNL     1       7.703  -4.908  -1.500  0.00  0.00    -0.150 OA
ATOM      2  S   UNL     1       6.486  -5.325  -0.850  0.00  0.00    +0.078 S 
ATOM      3  O   UNL     1       5.781  -6.542  -1.171  0.00  0.00    -0.150 OA
ATOM      4  N   UNL     1       6.682  -5.212   0.840  0.00  0.00    -0.165 N 
ATOM      5  C   UNL     1       5.924  -4.155   1.395  0.00  0.00    +0.268 C 
ATOM      6  O   UNL     1       5.889  -3.803   2.558  0.00  0.00    -0.268 OA
ATOM      7  C   UNL     1       5.117  -3.508   0.357  0.00  0.00    +0.067 A 
ATOM      8  C   UNL     1       4.163  -2.528   0.582  0.00  0.00    +0.042 A 
ATOM      9  C   UNL     1       3.478  -2.028  -0.529  0.00  0.00    +0.094 A 
ATOM     10  C   UNL     1       3.729  -2.523  -1.828  0.00  0.00    +0.029 A 
ATOM     11  C   UNL     1       4.676  -3.535  -2.029  0.00  0.00    +0.031 A 
ATOM     12  C   UNL     1       5.346  -4.009  -0.914  0.00  0.00    +0.121 A 
ENDROOT
BRANCH   4  13
ATOM     13  C   UNL     1       7.241  -6.401   1.535  0.00  0.00    +0.104 C 
ATOM     14  C   UNL     1       6.140  -7.179   2.262  0.00  0.00    +0.039 C 
ATOM     15  C   UNL     1       5.865  -6.666   3.671  0.00  0.00    +0.083 C 
ATOM     16  N   UNL     1       7.083  -6.599   4.472  0.00  0.00    -0.316 NA
ATOM     17  C   UNL     1       8.064  -5.696   3.875  0.00  0.00    +0.083 C 
ATOM     18  C   UNL     1       8.433  -6.090   2.445  0.00  0.00    +0.039 C 
ATOM     19  H   UNL     1       7.484  -7.530   4.573  0.00  0.00    +0.122 HD
ENDBRANCH   4  13
BRANCH   9  20
ATOM     20  S   UNL     1       2.191  -0.817  -0.277  0.00  0.00    +0.025 S 
ATOM     21  O   UNL     1       2.279  -0.397   1.110  0.00  0.00    -0.164 OA
ATOM     22  O   UNL     1       2.307   0.158  -1.348  0.00  0.00    -0.164 OA
BRANCH  20  23
ATOM     23  C   UNL     1       0.648  -1.672  -0.484  0.00  0.00    +0.094 A 
ATOM     24  C   UNL     1      -0.552  -0.976  -0.313  0.00  0.00    +0.027 A 
ATOM     25  C   UNL     1      -1.763  -1.636  -0.511  0.00  0.00    +0.002 A 
ATOM     26  C   UNL     1      -1.773  -2.980  -0.890  0.00  0.00    +0.000 A 
ATOM     27  C   UNL     1      -0.570  -3.666  -1.073  0.00  0.00    +0.002 A 
ATOM     28  C   UNL     1       0.646  -3.015  -0.875  0.00  0.00    +0.027 A 
ENDBRANCH  20  23
ENDBRANCH   9  20
TORSDOF 3
ENDMDL
MODEL 3
REMARK VINA RESULT:    -7.622      3.481      7.968
REMARK INTER + INTRA:          -9.244
REMARK INTER:                  -8.955
REMARK INTRA:                  -0.289
REMARK UNBOUND:                -0.285
REMARK  Name = 
REMARK  3 active torsions:
REMARK  status: ('A' for Active; 'I' for Inactive)
REMARK    1  A    between atoms: N_4  and  C_5
REMARK    2  A    between atoms: C_15  and  S_16
REMARK    3  A    between atoms: S_16  and  C_19
REMARK                            x       y       z     vdW  Elec       q    Type
REMARK                         _______ _______ _______ _____ _____    ______ ____
ROOT
ATOM      1  O   UNL     1       1.563   0.851  -0.369  0.00  0.00    -0.150 OA
ATOM      2  S   UNL     1       1.510  -0.290   0.511  0.00  0.00    +0.078 S 
ATOM      3  O   UNL     1       2.090  -0.313   1.832  0.00  0.00    -0.150 OA
ATOM      4  N   UNL     1      -0.091  -0.871   0.585  0.00  0.00    -0.165 N 
ATOM      5  C   UNL     1      -0.239  -2.113  -0.076  0.00  0.00    +0.268 C 
ATOM      6  O   UNL     1      -1.262  -2.753  -0.226  0.00  0.00    -0.268 OA
ATOM      7  C   UNL     1       1.058  -2.584  -0.568  0.00  0.00    +0.067 A 
ATOM      8  C   UNL     1       1.293  -3.824  -1.141  0.00  0.00    +0.042 A 
ATOM      9  C   UNL     1       2.599  -4.112  -1.545  0.00  0.00    +0.094 A 
ATOM     10  C   UNL     1       3.647  -3.184  -1.351  0.00  0.00    +0.029 A 
ATOM     11  C   UNL     1       3.393  -1.948  -0.743  0.00  0.00    +0.031 A 
ATOM     12  C   UNL     1       2.091  -1.684  -0.357  0.00  0.00    +0.121 A 
ENDROOT
BRANCH   4  13
ATOM     13  C   UNL     1      -0.980  -0.270   1.614  0.00  0.00    +0.104 C 
ATOM     14  C   UNL     1      -2.421  -0.760   1.446  0.00  0.00    +0.039 C 
ATOM     15  C   UNL     1      -3.235   0.077   0.465  0.00  0.00    +0.083 C 
ATOM     16  N   UNL     1      -3.193   1.498   0.797  0.00  0.00    -0.316 NA
ATOM     17  C   UNL     1      -1.826   2.012   0.764  0.00  0.00    +0.083 C 
ATOM     18  C   UNL     1      -0.889   1.256   1.704  0.00  0.00    +0.039 C 
ATOM     19  H   UNL     1      -3.600   1.651   1.719  0.00  0.00    +0.122 HD
ENDBRANCH   4  13
BRANCH   9  20
ATOM     20  S   UNL     1       2.959  -5.724  -2.222  0.00  0.00    +0.025 S 
ATOM     21  O   UNL     1       1.733  -6.203  -2.834  0.00  0.00    -0.164 OA
ATOM     22  O   UNL     1       4.172  -5.594  -3.011  0.00  0.00    -0.164 OA
BRANCH  20  23
ATOM     23  C   UNL     1       3.320  -6.780  -0.840  0.00  0.00    +0.094 A 
ATOM     24  C   UNL     1       4.402  -6.477  -0.008  0.00  0.00    +0.027 A 
ATOM     25  C   UNL     1       4.665  -7.283   1.098  0.00  0.00    +0.002 A 
ATOM     26  C   UNL     1       3.844  -8.377   1.376  0.00  0.00    +0.000 A 
ATOM     27  C   UNL     1       2.756  -8.666   0.550  0.00  0.00    +0.002 A 
ATOM     28  C   UNL     1       2.486  -7.867  -0.560  0.00  0.00    +0.027 A 
ENDBRANCH  20  23
ENDBRANCH   9  20
TORSDOF 3
ENDMDL
MODEL 4
REMARK VINA RESULT:    -7.453      3.106      4.470
REMARK INTER + INTRA:          -9.045
REMARK INTER:                  -8.922
REMARK INTRA:                  -0.123
REMARK UNBOUND:                -0.285
REMARK  Name = 
REMARK  3 active torsions:
REMARK  status: ('A' for Active; 'I' for Inactive)
REMARK    1  A    between atoms: N_4  and  C_5
REMARK    2  A    between atoms: C_15  and  S_16
REMARK    3  A    between atoms: S_16  and  C_19
REMARK                            x       y       z     vdW  Elec       q    Type
REMARK                         _______ _______ _______ _____ _____    ______ ____
ROOT
ATOM      1  O   UNL     1       5.347  -4.923   0.612  0.00  0.00    -0.150 OA
ATOM      2  S   UNL     1       4.797  -4.501  -0.652  0.00  0.00    +0.078 S 
ATOM      3  O   UNL     1       5.595  -4.198  -1.814  0.00  0.00    -0.150 OA
ATOM      4  N   UNL     1       3.528  -5.551  -1.093  0.00  0.00    -0.165 N 
ATOM      5  C   UNL     1       2.262  -4.927  -1.000  0.00  0.00    +0.268 C 
ATOM      6  O   UNL     1       1.175  -5.428  -1.209  0.00  0.00    -0.268 OA
ATOM      7  C   UNL     1       2.416  -3.519  -0.626  0.00  0.00    +0.067 A 
ATOM      8  C   UNL     1       1.391  -2.588  -0.579  0.00  0.00    +0.042 A 
ATOM      9  C   UNL     1       1.721  -1.281  -0.211  0.00  0.00    +0.094 A 
ATOM     10  C   UNL     1       3.055  -0.917   0.076  0.00  0.00    +0.029 A 
ATOM     11  C   UNL     1       4.081  -1.866  -0.006  0.00  0.00    +0.031 A 
ATOM     12  C   UNL     1       3.728  -3.155  -0.367  0.00  0.00    +0.121 A 
ENDROOT
BRANCH   4  13
ATOM     13  C   UNL     1       3.896  -6.764  -1.869  0.00  0.00    +0.104 C 
ATOM     14  C   UNL     1       3.512  -6.608  -3.344  0.00  0.00    +0.039 C 
ATOM     15  C   UNL     1       2.077  -7.029  -3.643  0.00  0.00    +0.083 C 
ATOM     16  N   UNL     1       1.795  -8.378  -3.162  0.00  0.00    -0.316 NA
ATOM     17  C   UNL     1       1.973  -8.475  -1.716  0.00  0.00    +0.083 C 
ATOM     18  C   UNL     1       3.377  -8.073  -1.267  0.00  0.00    +0.039 C 
ATOM     19  H   UNL     1       2.400  -9.048  -3.633  0.00  0.00    +0.122 HD
ENDBRANCH   4  13
BRANCH   9  20
ATOM     20  S   UNL     1       0.443  -0.035  -0.207  0.00  0.00    +0.025 S 
ATOM     21  O   UNL     1       0.746   0.872   0.885  0.00  0.00    -0.164 OA
ATOM     22  O   UNL     1       0.330   0.464  -1.566  0.00  0.00    -0.164 OA
BRANCH  20  23
ATOM     23  C   UNL     1      -1.073  -0.872   0.192  0.00  0.00    +0.094 A 
ATOM     24  C   UNL     1      -1.662  -1.715  -0.755  0.00  0.00    +0.027 A 
ATOM     25  C   UNL     1      -2.831  -2.401  -0.431  0.00  0.00    +0.002 A 
ATOM     26  C   UNL     1      -3.400  -2.253   0.836  0.00  0.00    +0.000 A 
ATOM     27  C   UNL     1      -2.799  -1.420   1.782  0.00  0.00    +0.002 A 
ATOM     28  C   UNL     1      -1.631  -0.728   1.466  0.00  0.00    +0.027 A 
ENDBRANCH  20  23
ENDBRANCH   9  20
TORSDOF 3
ENDMDL
