REMARK  Name = 
REMARK  3 active torsions:
REMARK  status: ('A' for Active; 'I' for Inactive)
REMARK    1  A    between atoms: N_4  and  C_5
REMARK    2  A    between atoms: C_15  and  S_16
REMARK    3  A    between atoms: S_16  and  C_19
REMARK                            x       y       z     vdW  Elec       q    Type
REMARK                         _______ _______ _______ _____ _____    ______ ____
ROOT
ATOM      1  O   UNL     1       1.941   1.000   1.284  0.00  0.00    -0.150 OA
ATOM      2  S   UNL     1       1.370   0.436   0.086  0.00  0.00    +0.078 S 
ATOM      3  O   UNL     1       1.825   0.752  -1.246  0.00  0.00    -0.150 OA
ATOM      4  N   UNL     1       1.255  -1.256   0.259  0.00  0.00    -0.165 N 
ATOM      5  C   UNL     1      -0.085  -1.688   0.397  0.00  0.00    +0.268 C 
ATOM      6  O   UNL     1      -0.480  -2.824   0.576  0.00  0.00    -0.268 OA
ATOM      7  C   UNL     1      -1.001  -0.552   0.268  0.00  0.00    +0.067 A 
ATOM      8  C   UNL     1      -2.383  -0.642   0.219  0.00  0.00    +0.042 A 
ATOM      9  C   UNL     1      -3.103   0.548   0.082  0.00  0.00    +0.094 A 
ATOM     10  C   UNL     1      -2.445   1.793  -0.030  0.00  0.00    +0.029 A 
ATOM     11  C   UNL     1      -1.046   1.858  -0.008  0.00  0.00    +0.031 A 
ATOM     12  C   UNL     1      -0.356   0.667   0.135  0.00  0.00    +0.121 A 
ENDROOT
BRANCH   4  13
ATOM     13  C   UNL     1       2.438  -2.058  -0.150  0.00  0.00    +0.104 C 
ATOM     14  C   UNL     1       2.301  -2.536  -1.599  0.00  0.00    +0.039 C 
ATOM     15  C   UNL     1       1.544  -3.853  -1.733  0.00  0.00    +0.083 C 
ATOM     16  N   UNL     1       2.111  -4.895  -0.883  0.00  0.00    -0.316 NA
ATOM     17  C   UNL     1       2.060  -4.517   0.527  0.00  0.00    +0.083 C 
ATOM     18  C   UNL     1       2.781  -3.200   0.811  0.00  0.00    +0.039 C 
ATOM     19  H   UNL     1       3.074  -5.082  -1.158  0.00  0.00    +0.122 HD
ENDBRANCH   4  13
BRANCH   9  20
ATOM     20  S   UNL     1      -4.881   0.471  -0.057  0.00  0.00    +0.025 S 
ATOM     21  O   UNL     1      -5.286   1.602  -0.872  0.00  0.00    -0.164 OA
ATOM     22  O   UNL     1      -5.219  -0.883  -0.460  0.00  0.00    -0.164 OA
BRANCH  20  23
ATOM     23  C   UNL     1      -5.524   0.728   1.579  0.00  0.00    +0.094 A 
ATOM     24  C   UNL     1      -5.803   2.028   2.011  0.00  0.00    +0.027 A 
ATOM     25  C   UNL     1      -6.342   2.229   3.281  0.00  0.00    +0.002 A 
ATOM     26  C   UNL     1      -6.610   1.136   4.107  0.00  0.00    +0.000 A 
ATOM     27  C   UNL     1      -6.342  -0.161   3.664  0.00  0.00    +0.002 A 
ATOM     28  C   UNL     1      -5.801  -0.372   2.397  0.00  0.00    +0.027 A 
ENDBRANCH  20  23
ENDBRANCH   9  20
TORSDOF 3
