MODEL 1
REMARK VINA RESULT:    -4.409      0.000      0.000
REMARK INTER + INTRA:          -3.901
REMARK INTER:                  -5.182
REMARK INTRA:                   1.281
REMARK UNBOUND:                 1.281
REMARK  Name = 
REMARK  3 active torsions:
REMARK  status: ('A' for Active; 'I' for Inactive)
REMARK    1  A    between atoms: N_4  and  C_5
REMARK    2  A    between atoms: C_15  and  S_16
REMARK    3  A    between atoms: S_16  and  C_19
REMARK                            x       y       z     vdW  Elec       q    Type
REMARK                         _______ _______ _______ _____ _____    ______ ____
ROOT
ATOM      1  O   UNL     1      27.272   6.493   6.485  0.00  0.00    -0.150 OA
ATOM      2  S   UNL     1      26.439   5.541   5.792  0.00  0.00    +0.078 S 
ATOM      3  O   UNL     1      25.090   5.217   6.188  0.00  0.00    -0.150 OA
ATOM      4  N   UNL     1      26.474   5.874   4.120  0.00  0.00    -0.165 N 
ATOM      5  C   UNL     1      27.187   4.890   3.396  0.00  0.00    +0.268 C 
ATOM      6  O   UNL     1      27.417   4.874   2.202  0.00  0.00    -0.268 OA
ATOM      7  C   UNL     1      27.624   3.817   4.292  0.00  0.00    +0.067 A 
ATOM      8  C   UNL     1      28.229   2.636   3.889  0.00  0.00    +0.042 A 
ATOM      9  C   UNL     1      28.571   1.715   4.882  0.00  0.00    +0.094 A 
ATOM     10  C   UNL     1      28.286   1.965   6.243  0.00  0.00    +0.029 A 
ATOM     11  C   UNL     1      27.648   3.151   6.625  0.00  0.00    +0.031 A 
ATOM     12  C   UNL     1      27.325   4.051   5.624  0.00  0.00    +0.121 A 
ENDROOT
BRANCH   4  13
ATOM     13  C   UNL     1      25.473   6.845   3.604  0.00  0.00    +0.104 C 
ATOM     14  C   UNL     1      25.609   8.198   4.310  0.00  0.00    +0.039 C 
ATOM     15  C   UNL     1      24.811   8.287   5.607  0.00  0.00    +0.083 C 
ATOM     16  N   UNL     1      23.410   7.931   5.409  0.00  0.00    -0.316 NA
ATOM     17  C   UNL     1      23.273   6.562   4.919  0.00  0.00    +0.083 C 
ATOM     18  C   UNL     1      24.033   6.323   3.615  0.00  0.00    +0.039 C 
ATOM     19  H   UNL     1      22.976   8.580   4.753  0.00  0.00    +0.122 HD
ENDBRANCH   4  13
BRANCH   9  20
ATOM     20  S   UNL     1      29.286   0.152   4.400  0.00  0.00    +0.025 S 
ATOM     21  O   UNL     1      29.742   0.305   3.031  0.00  0.00    -0.164 OA
ATOM     22  O   UNL     1      30.219  -0.231   5.446  0.00  0.00    -0.164 OA
BRANCH  20  23
ATOM     23  C   UNL     1      27.958  -1.029   4.398  0.00  0.00    +0.094 A 
ATOM     24  C   UNL     1      27.891  -1.984   3.379  0.00  0.00    +0.027 A 
ATOM     25  C   UNL     1      26.870  -2.934   3.396  0.00  0.00    +0.002 A 
ATOM     26  C   UNL     1      25.932  -2.934   4.429  0.00  0.00    +0.000 A 
ATOM     27  C   UNL     1      26.014  -1.986   5.451  0.00  0.00    +0.002 A 
ATOM     28  C   UNL     1      27.029  -1.030   5.443  0.00  0.00    +0.027 A 
ENDBRANCH  20  23
ENDBRANCH   9  20
TORSDOF 3
ENDMDL
MODEL 2
REMARK VINA RESULT:    -4.118      1.807      2.503
REMARK INTER + INTRA:          -3.559
REMARK INTER:                  -4.353
REMARK INTRA:                   0.795
REMARK UNBOUND:                 1.281
REMARK  Name = 
REMARK  3 active torsions:
REMARK  status: ('A' for Active; 'I' for Inactive)
REMARK    1  A    between atoms: N_4  and  C_5
REMARK    2  A    between atoms: C_15  and  S_16
REMARK    3  A    between atoms: S_16  and  C_19
REMARK                            x       y       z     vdW  Elec       q    Type
REMARK                         _______ _______ _______ _____ _____    ______ ____
ROOT
ATOM      1  O   UNL     1      23.033   3.762   6.721  0.00  0.00    -0.150 OA
ATOM      2  S   UNL     1      23.666   3.866   5.430  0.00  0.00    +0.078 S 
ATOM      3  O   UNL     1      22.971   3.689   4.178  0.00  0.00    -0.150 OA
ATOM      4  N   UNL     1      24.587   5.299   5.368  0.00  0.00    -0.165 N 
ATOM      5  C   UNL     1      25.978   5.040   5.375  0.00  0.00    +0.268 C 
ATOM      6  O   UNL     1      26.881   5.854   5.379  0.00  0.00    -0.268 OA
ATOM      7  C   UNL     1      26.226   3.596   5.352  0.00  0.00    +0.067 A 
ATOM      8  C   UNL     1      27.471   3.002   5.218  0.00  0.00    +0.042 A 
ATOM      9  C   UNL     1      27.521   1.605   5.204  0.00  0.00    +0.094 A 
ATOM     10  C   UNL     1      26.344   0.829   5.295  0.00  0.00    +0.029 A 
ATOM     11  C   UNL     1      25.093   1.451   5.399  0.00  0.00    +0.031 A 
ATOM     12  C   UNL     1      25.070   2.835   5.418  0.00  0.00    +0.121 A 
ENDROOT
BRANCH   4  13
ATOM     13  C   UNL     1      23.888   6.532   4.918  0.00  0.00    +0.104 C 
ATOM     14  C   UNL     1      24.137   6.790   3.429  0.00  0.00    +0.039 C 
ATOM     15  C   UNL     1      25.409   7.587   3.157  0.00  0.00    +0.083 C 
ATOM     16  N   UNL     1      25.447   8.828   3.924  0.00  0.00    -0.316 NA
ATOM     17  C   UNL     1      25.408   8.568   5.360  0.00  0.00    +0.083 C 
ATOM     18  C   UNL     1      24.178   7.764   5.780  0.00  0.00    +0.039 C 
ATOM     19  H   UNL     1      24.665   9.425   3.657  0.00  0.00    +0.122 HD
ENDBRANCH   4  13
BRANCH   9  20
ATOM     20  S   UNL     1      29.095   0.800   4.962  0.00  0.00    +0.025 S 
ATOM     21  O   UNL     1      29.818   1.582   3.975  0.00  0.00    -0.164 OA
ATOM     22  O   UNL     1      29.665   0.572   6.278  0.00  0.00    -0.164 OA
BRANCH  20  23
ATOM     23  C   UNL     1      28.743  -0.785   4.240  0.00  0.00    +0.094 A 
ATOM     24  C   UNL     1      29.798  -1.647   3.928  0.00  0.00    +0.027 A 
ATOM     25  C   UNL     1      29.521  -2.906   3.395  0.00  0.00    +0.002 A 
ATOM     26  C   UNL     1      28.199  -3.302   3.189  0.00  0.00    +0.000 A 
ATOM     27  C   UNL     1      27.149  -2.441   3.516  0.00  0.00    +0.002 A 
ATOM     28  C   UNL     1      27.415  -1.180   4.047  0.00  0.00    +0.027 A 
ENDBRANCH  20  23
ENDBRANCH   9  20
TORSDOF 3
ENDMDL
MODEL 3
REMARK VINA RESULT:    -3.929      2.397      3.122
REMARK INTER + INTRA:          -3.336
REMARK INTER:                  -4.254
REMARK INTRA:                   0.918
REMARK UNBOUND:                 1.281
REMARK  Name = 
REMARK  3 active torsions:
REMARK  status: ('A' for Active; 'I' for Inactive)
REMARK    1  A    between atoms: N_4  and  C_5
REMARK    2  A    between atoms: C_15  and  S_16
REMARK    3  A    between atoms: S_16  and  C_19
REMARK                            x       y       z     vdW  Elec       q    Type
REMARK                         _______ _______ _______ _____ _____    ______ ____
ROOT
ATOM      1  O   UNL     1      23.567   4.571   6.048  0.00  0.00    -0.150 OA
ATOM      2  S   UNL     1      24.194   4.189   4.807  0.00  0.00    +0.078 S 
ATOM      3  O   UNL     1      23.574   4.344   3.513  0.00  0.00    -0.150 OA
ATOM      4  N   UNL     1      25.776   4.821   4.757  0.00  0.00    -0.165 N 
ATOM      5  C   UNL     1      26.758   3.811   4.884  0.00  0.00    +0.268 C 
ATOM      6  O   UNL     1      27.965   3.956   4.925  0.00  0.00    -0.268 OA
ATOM      7  C   UNL     1      26.125   2.491   4.941  0.00  0.00    +0.067 A 
ATOM      8  C   UNL     1      26.800   1.281   4.930  0.00  0.00    +0.042 A 
ATOM      9  C   UNL     1      26.033   0.114   4.979  0.00  0.00    +0.094 A 
ATOM     10  C   UNL     1      24.622   0.166   5.010  0.00  0.00    +0.029 A 
ATOM     11  C   UNL     1      23.959   1.400   4.990  0.00  0.00    +0.031 A 
ATOM     12  C   UNL     1      24.741   2.541   4.948  0.00  0.00    +0.121 A 
ENDROOT
BRANCH   4  13
ATOM     13  C   UNL     1      25.938   6.191   4.202  0.00  0.00    +0.104 C 
ATOM     14  C   UNL     1      26.592   7.123   5.227  0.00  0.00    +0.039 C 
ATOM     15  C   UNL     1      25.591   7.781   6.172  0.00  0.00    +0.083 C 
ATOM     16  N   UNL     1      24.523   8.459   5.445  0.00  0.00    -0.316 NA
ATOM     17  C   UNL     1      23.770   7.525   4.612  0.00  0.00    +0.083 C 
ATOM     18  C   UNL     1      24.654   6.782   3.612  0.00  0.00    +0.039 C 
ATOM     19  H   UNL     1      24.913   9.203   4.868  0.00  0.00    +0.122 HD
ENDBRANCH   4  13
BRANCH   9  20
ATOM     20  S   UNL     1      26.858  -1.467   4.895  0.00  0.00    +0.025 S 
ATOM     21  O   UNL     1      27.359  -1.748   6.229  0.00  0.00    -0.164 OA
ATOM     22  O   UNL     1      25.946  -2.390   4.244  0.00  0.00    -0.164 OA
BRANCH  20  23
ATOM     23  C   UNL     1      28.261  -1.245   3.828  0.00  0.00    +0.094 A 
ATOM     24  C   UNL     1      28.375  -0.069   3.080  0.00  0.00    +0.027 A 
ATOM     25  C   UNL     1      29.494   0.123   2.270  0.00  0.00    +0.002 A 
ATOM     26  C   UNL     1      30.495  -0.849   2.219  0.00  0.00    +0.000 A 
ATOM     27  C   UNL     1      30.381  -2.014   2.980  0.00  0.00    +0.002 A 
ATOM     28  C   UNL     1      29.266  -2.216   3.791  0.00  0.00    +0.027 A 
ENDBRANCH  20  23
ENDBRANCH   9  20
TORSDOF 3
ENDMDL
MODEL 4
REMARK VINA RESULT:    -3.861      3.032      8.055
REMARK INTER + INTRA:          -3.257
REMARK INTER:                  -3.353
REMARK INTRA:                   0.096
REMARK UNBOUND:                 1.281
REMARK  Name = 
REMARK  3 active torsions:
REMARK  status: ('A' for Active; 'I' for Inactive)
REMARK    1  A    between atoms: N_4  and  C_5
REMARK    2  A    between atoms: C_15  and  S_16
REMARK    3  A    between atoms: S_16  and  C_19
REMARK                            x       y       z     vdW  Elec       q    Type
REMARK                         _______ _______ _______ _____ _____    ______ ____
ROOT
ATOM      1  O   UNL     1      29.023  -0.277   6.090  0.00  0.00    -0.150 OA
ATOM      2  S   UNL     1      28.790   0.604   4.972  0.00  0.00    +0.078 S 
ATOM      3  O   UNL     1      29.819   1.403   4.352  0.00  0.00    -0.150 OA
ATOM      4  N   UNL     1      27.917  -0.230   3.769  0.00  0.00    -0.165 N 
ATOM      5  C   UNL     1      26.585   0.235   3.658  0.00  0.00    +0.268 C 
ATOM      6  O   UNL     1      25.714  -0.188   2.922  0.00  0.00    -0.268 OA
ATOM      7  C   UNL     1      26.365   1.366   4.563  0.00  0.00    +0.067 A 
ATOM      8  C   UNL     1      25.216   2.140   4.609  0.00  0.00    +0.042 A 
ATOM      9  C   UNL     1      25.182   3.190   5.531  0.00  0.00    +0.094 A 
ATOM     10  C   UNL     1      26.287   3.468   6.365  0.00  0.00    +0.029 A 
ATOM     11  C   UNL     1      27.450   2.692   6.281  0.00  0.00    +0.031 A 
ATOM     12  C   UNL     1      27.457   1.654   5.366  0.00  0.00    +0.121 A 
ENDROOT
BRANCH   4  13
ATOM     13  C   UNL     1      28.708  -0.990   2.766  0.00  0.00    +0.104 C 
ATOM     14  C   UNL     1      28.144  -2.402   2.580  0.00  0.00    +0.039 C 
ATOM     15  C   UNL     1      28.706  -3.413   3.574  0.00  0.00    +0.083 C 
ATOM     16  N   UNL     1      30.165  -3.421   3.575  0.00  0.00    -0.316 NA
ATOM     17  C   UNL     1      30.703  -2.116   3.948  0.00  0.00    +0.083 C 
ATOM     18  C   UNL     1      30.216  -0.994   3.032  0.00  0.00    +0.039 C 
ATOM     19  H   UNL     1      30.512  -3.691   2.656  0.00  0.00    +0.122 HD
ENDBRANCH   4  13
BRANCH   9  20
ATOM     20  S   UNL     1      23.750   4.256   5.573  0.00  0.00    +0.025 S 
ATOM     21  O   UNL     1      22.817   3.742   4.587  0.00  0.00    -0.164 OA
ATOM     22  O   UNL     1      23.353   4.381   6.965  0.00  0.00    -0.164 OA
BRANCH  20  23
ATOM     23  C   UNL     1      24.296   5.852   5.018  0.00  0.00    +0.094 A 
ATOM     24  C   UNL     1      24.979   6.691   5.904  0.00  0.00    +0.027 A 
ATOM     25  C   UNL     1      25.440   7.929   5.460  0.00  0.00    +0.002 A 
ATOM     26  C   UNL     1      25.230   8.319   4.136  0.00  0.00    +0.000 A 
ATOM     27  C   UNL     1      24.560   7.471   3.252  0.00  0.00    +0.002 A 
ATOM     28  C   UNL     1      24.093   6.232   3.687  0.00  0.00    +0.027 A 
ENDBRANCH  20  23
ENDBRANCH   9  20
TORSDOF 3
ENDMDL
MODEL 5
REMARK VINA RESULT:    -3.007      3.320      8.195
REMARK INTER + INTRA:          -2.253
REMARK INTER:                  -2.326
REMARK INTRA:                   0.073
REMARK UNBOUND:                 1.281
REMARK  Name = 
REMARK  3 active torsions:
REMARK  status: ('A' for Active; 'I' for Inactive)
REMARK    1  A    between atoms: N_4  and  C_5
REMARK    2  A    between atoms: C_15  and  S_16
REMARK    3  A    between atoms: S_16  and  C_19
REMARK                            x       y       z     vdW  Elec       q    Type
REMARK                         _______ _______ _______ _____ _____    ______ ____
ROOT
ATOM      1  O   UNL     1      27.446  -0.413   2.146  0.00  0.00    -0.150 OA
ATOM      2  S   UNL     1      26.722  -0.632   3.374  0.00  0.00    +0.078 S 
ATOM      3  O   UNL     1      25.943  -1.815   3.646  0.00  0.00    -0.150 OA
ATOM      4  N   UNL     1      27.748  -0.312   4.697  0.00  0.00    -0.165 N 
ATOM      5  C   UNL     1      27.383   0.871   5.381  0.00  0.00    +0.268 C 
ATOM      6  O   UNL     1      27.945   1.377   6.333  0.00  0.00    -0.268 OA
ATOM      7  C   UNL     1      26.168   1.442   4.796  0.00  0.00    +0.067 A 
ATOM      8  C   UNL     1      25.466   2.522   5.307  0.00  0.00    +0.042 A 
ATOM      9  C   UNL     1      24.317   2.928   4.624  0.00  0.00    +0.094 A 
ATOM     10  C   UNL     1      23.871   2.244   3.470  0.00  0.00    +0.029 A 
ATOM     11  C   UNL     1      24.579   1.136   2.988  0.00  0.00    +0.031 A 
ATOM     12  C   UNL     1      25.717   0.758   3.678  0.00  0.00    +0.121 A 
ENDROOT
BRANCH   4  13
ATOM     13  C   UNL     1      28.573  -1.442   5.199  0.00  0.00    +0.104 C 
ATOM     14  C   UNL     1      30.042  -1.028   5.338  0.00  0.00    +0.039 C 
ATOM     15  C   UNL     1      30.844  -1.204   4.054  0.00  0.00    +0.083 C 
ATOM     16  N   UNL     1      30.724  -2.556   3.517  0.00  0.00    -0.316 NA
ATOM     17  C   UNL     1      29.336  -2.879   3.199  0.00  0.00    +0.083 C 
ATOM     18  C   UNL     1      28.406  -2.740   4.403  0.00  0.00    +0.039 C 
ATOM     19  H   UNL     1      31.093  -3.229   4.187  0.00  0.00    +0.122 HD
ENDBRANCH   4  13
BRANCH   9  20
ATOM     20  S   UNL     1      23.344   4.269   5.288  0.00  0.00    +0.025 S 
ATOM     21  O   UNL     1      22.110   4.308   4.526  0.00  0.00    -0.164 OA
ATOM     22  O   UNL     1      23.312   4.099   6.730  0.00  0.00    -0.164 OA
BRANCH  20  23
ATOM     23  C   UNL     1      24.242   5.762   4.936  0.00  0.00    +0.094 A 
ATOM     24  C   UNL     1      25.322   6.121   5.748  0.00  0.00    +0.027 A 
ATOM     25  C   UNL     1      26.050   7.272   5.452  0.00  0.00    +0.002 A 
ATOM     26  C   UNL     1      25.707   8.051   4.346  0.00  0.00    +0.000 A 
ATOM     27  C   UNL     1      24.636   7.679   3.531  0.00  0.00    +0.002 A 
ATOM     28  C   UNL     1      23.900   6.531   3.820  0.00  0.00    +0.027 A 
ENDBRANCH  20  23
ENDBRANCH   9  20
TORSDOF 3
ENDMDL
