MODEL 1
REMARK VINA RESULT:    -5.280      0.000      0.000
REMARK INTER + INTRA:          -5.666
REMARK INTER:                  -5.589
REMARK INTRA:                  -0.078
REMARK UNBOUND:                -0.078
REMARK SMILES [H]/N=C(\N)Nc1ccc2ccccc2c1
REMARK SMILES IDX 4 1 3 2 2 3 5 4 1 7 6 9 7 10 15 11 8 12 14 13 9 14 13 15
REMARK SMILES IDX 10 16 12 17 11 18
REMARK H PARENT 4 5 4 6 5 8
ROOT
ATOM      1  N   UNL     1       6.643   6.454  -1.918  1.00  0.00    -0.370 N 
ATOM      2  C   UNL     1       7.546   7.290  -2.478  1.00  0.00     0.190 C 
ATOM      3  N   UNL     1       8.116   8.220  -1.798  1.00  0.00    -0.269 NA
ATOM      4  N   UNL     1       7.735   7.137  -3.812  1.00  0.00    -0.327 N 
ATOM      5  H   UNL     1       6.208   6.778  -1.072  1.00  0.00     0.159 HD
ATOM      6  H   UNL     1       5.966   6.115  -2.593  1.00  0.00     0.159 HD
ATOM      7  H   UNL     1       7.837   8.129  -0.816  1.00  0.00     0.191 HD
ATOM      8  H   UNL     1       8.301   7.870  -4.223  1.00  0.00     0.170 HD
ENDROOT
BRANCH   4   9
ATOM      9  C   UNL     1       7.808   5.914  -4.516  1.00  0.00     0.041 A 
ATOM     10  C   UNL     1       6.690   5.321  -5.118  1.00  0.00     0.027 A 
ATOM     11  C   UNL     1       9.056   5.302  -4.691  1.00  0.00     0.034 A 
ATOM     12  C   UNL     1       6.807   4.159  -5.880  1.00  0.00     0.011 A 
ATOM     13  C   UNL     1       9.195   4.125  -5.452  1.00  0.00    -0.016 A 
ATOM     14  C   UNL     1       8.052   3.548  -6.053  1.00  0.00    -0.018 A 
ATOM     15  C   UNL     1      10.440   3.503  -5.630  1.00  0.00     0.009 A 
ATOM     16  C   UNL     1       8.179   2.374  -6.807  1.00  0.00     0.009 A 
ATOM     17  C   UNL     1      10.551   2.326  -6.375  1.00  0.00     0.001 A 
ATOM     18  C   UNL     1       9.422   1.761  -6.963  1.00  0.00     0.001 A 
ENDBRANCH   4   9
TORSDOF 1
ENDMDL
MODEL 2
REMARK VINA RESULT:    -5.070      2.517      5.771
REMARK INTER + INTRA:          -5.444
REMARK INTER:                  -5.291
REMARK INTRA:                  -0.153
REMARK UNBOUND:                -0.078
REMARK SMILES [H]/N=C(\N)Nc1ccc2ccccc2c1
REMARK SMILES IDX 4 1 3 2 2 3 5 4 1 7 6 9 7 10 15 11 8 12 14 13 9 14 13 15
REMARK SMILES IDX 10 16 12 17 11 18
REMARK H PARENT 4 5 4 6 5 8
ROOT
ATOM      1  N   UNL     1       9.837   5.774  -6.031  1.00  0.00    -0.370 N 
ATOM      2  C   UNL     1       9.464   4.696  -5.306  1.00  0.00     0.190 C 
ATOM      3  N   UNL     1      10.297   3.765  -5.004  1.00  0.00    -0.269 NA
ATOM      4  N   UNL     1       8.144   4.626  -5.002  1.00  0.00    -0.327 N 
ATOM      5  H   UNL     1      10.671   5.668  -6.582  1.00  0.00     0.159 HD
ATOM      6  H   UNL     1       9.068   6.158  -6.571  1.00  0.00     0.159 HD
ATOM      7  H   UNL     1      11.231   4.044  -5.318  1.00  0.00     0.191 HD
ATOM      8  H   UNL     1       7.874   3.740  -4.590  1.00  0.00     0.170 HD
ENDROOT
BRANCH   4   9
ATOM      9  C   UNL     1       7.311   5.698  -4.611  1.00  0.00     0.041 A 
ATOM     10  C   UNL     1       6.202   6.107  -5.364  1.00  0.00     0.027 A 
ATOM     11  C   UNL     1       7.551   6.336  -3.386  1.00  0.00     0.034 A 
ATOM     12  C   UNL     1       5.348   7.113  -4.910  1.00  0.00     0.011 A 
ATOM     13  C   UNL     1       6.705   7.357  -2.914  1.00  0.00    -0.016 A 
ATOM     14  C   UNL     1       5.589   7.748  -3.689  1.00  0.00    -0.018 A 
ATOM     15  C   UNL     1       6.939   8.003  -1.690  1.00  0.00     0.009 A 
ATOM     16  C   UNL     1       4.744   8.768  -3.230  1.00  0.00     0.009 A 
ATOM     17  C   UNL     1       6.095   9.026  -1.249  1.00  0.00     0.001 A 
ATOM     18  C   UNL     1       4.999   9.408  -2.018  1.00  0.00     0.001 A 
ENDBRANCH   4   9
TORSDOF 1
ENDMDL
MODEL 3
REMARK VINA RESULT:    -5.044     14.237     15.924
REMARK INTER + INTRA:          -5.416
REMARK INTER:                  -5.288
REMARK INTRA:                  -0.128
REMARK UNBOUND:                -0.078
REMARK SMILES [H]/N=C(\N)Nc1ccc2ccccc2c1
REMARK SMILES IDX 4 1 3 2 2 3 5 4 1 7 6 9 7 10 15 11 8 12 14 13 9 14 13 15
REMARK SMILES IDX 10 16 12 17 11 18
REMARK H PARENT 4 5 4 6 5 8
ROOT
ATOM      1  N   UNL     1       6.768  -1.410   6.653  1.00  0.00    -0.370 N 
ATOM      2  C   UNL     1       7.519  -1.630   7.756  1.00  0.00     0.190 C 
ATOM      3  N   UNL     1       8.714  -2.095   7.677  1.00  0.00    -0.269 NA
ATOM      4  N   UNL     1       6.895  -1.411   8.940  1.00  0.00    -0.327 N 
ATOM      5  H   UNL     1       7.045  -1.910   5.826  1.00  0.00     0.159 HD
ATOM      6  H   UNL     1       5.775  -1.500   6.842  1.00  0.00     0.159 HD
ATOM      7  H   UNL     1       8.978  -2.160   6.689  1.00  0.00     0.191 HD
ATOM      8  H   UNL     1       7.432  -1.725   9.740  1.00  0.00     0.170 HD
ENDROOT
BRANCH   4   9
ATOM      9  C   UNL     1       6.010  -0.352   9.242  1.00  0.00     0.041 A 
ATOM     10  C   UNL     1       6.444   0.971   9.409  1.00  0.00     0.027 A 
ATOM     11  C   UNL     1       4.634  -0.610   9.305  1.00  0.00     0.034 A 
ATOM     12  C   UNL     1       5.538   2.010   9.622  1.00  0.00     0.011 A 
ATOM     13  C   UNL     1       3.704   0.424   9.525  1.00  0.00    -0.016 A 
ATOM     14  C   UNL     1       4.166   1.751   9.685  1.00  0.00    -0.018 A 
ATOM     15  C   UNL     1       2.325   0.175   9.592  1.00  0.00     0.009 A 
ATOM     16  C   UNL     1       3.248   2.786   9.910  1.00  0.00     0.009 A 
ATOM     17  C   UNL     1       1.421   1.214   9.828  1.00  0.00     0.001 A 
ATOM     18  C   UNL     1       1.882   2.519   9.988  1.00  0.00     0.001 A 
ENDBRANCH   4   9
TORSDOF 1
ENDMDL
MODEL 4
REMARK VINA RESULT:    -5.028      2.896      6.359
REMARK INTER + INTRA:          -5.399
REMARK INTER:                  -5.258
REMARK INTRA:                  -0.141
REMARK UNBOUND:                -0.078
REMARK SMILES [H]/N=C(\N)Nc1ccc2ccccc2c1
REMARK SMILES IDX 4 1 3 2 2 3 5 4 1 7 6 9 7 10 15 11 8 12 14 13 9 14 13 15
REMARK SMILES IDX 10 16 12 17 11 18
REMARK H PARENT 4 5 4 6 5 8
ROOT
ATOM      1  N   UNL     1       8.432   6.684  -6.015  1.00  0.00    -0.370 N 
ATOM      2  C   UNL     1       8.760   5.610  -5.263  1.00  0.00     0.190 C 
ATOM      3  N   UNL     1       9.854   4.963  -5.453  1.00  0.00    -0.269 NA
ATOM      4  N   UNL     1       7.821   5.215  -4.368  1.00  0.00    -0.327 N 
ATOM      5  H   UNL     1       8.896   6.759  -6.903  1.00  0.00     0.159 HD
ATOM      6  H   UNL     1       7.427   6.803  -6.096  1.00  0.00     0.159 HD
ATOM      7  H   UNL     1      10.410   5.454  -6.159  1.00  0.00     0.191 HD
ATOM      8  H   UNL     1       8.034   4.326  -3.930  1.00  0.00     0.170 HD
ENDROOT
BRANCH   4   9
ATOM      9  C   UNL     1       7.018   6.055  -3.565  1.00  0.00     0.041 A 
ATOM     10  C   UNL     1       7.554   6.901  -2.584  1.00  0.00     0.027 A 
ATOM     11  C   UNL     1       5.638   6.108  -3.802  1.00  0.00     0.034 A 
ATOM     12  C   UNL     1       6.745   7.782  -1.865  1.00  0.00     0.011 A 
ATOM     13  C   UNL     1       4.804   6.986  -3.083  1.00  0.00    -0.016 A 
ATOM     14  C   UNL     1       5.369   7.834  -2.103  1.00  0.00    -0.018 A 
ATOM     15  C   UNL     1       3.420   7.045  -3.312  1.00  0.00     0.009 A 
ATOM     16  C   UNL     1       4.546   8.707  -1.378  1.00  0.00     0.009 A 
ATOM     17  C   UNL     1       2.610   7.912  -2.575  1.00  0.00     0.001 A 
ATOM     18  C   UNL     1       3.172   8.742  -1.608  1.00  0.00     0.001 A 
ENDBRANCH   4   9
TORSDOF 1
ENDMDL
MODEL 5
REMARK VINA RESULT:    -5.009     10.466     12.091
REMARK INTER + INTRA:          -5.380
REMARK INTER:                  -5.238
REMARK INTRA:                  -0.142
REMARK UNBOUND:                -0.078
REMARK SMILES [H]/N=C(\N)Nc1ccc2ccccc2c1
REMARK SMILES IDX 4 1 3 2 2 3 5 4 1 7 6 9 7 10 15 11 8 12 14 13 9 14 13 15
REMARK SMILES IDX 10 16 12 17 11 18
REMARK H PARENT 4 5 4 6 5 8
ROOT
ATOM      1  N   UNL     1      -2.242   4.691   6.127  1.00  0.00    -0.370 N 
ATOM      2  C   UNL     1      -1.323   5.661   6.338  1.00  0.00     0.190 C 
ATOM      3  N   UNL     1      -1.440   6.502   7.302  1.00  0.00    -0.269 NA
ATOM      4  N   UNL     1      -0.332   5.736   5.415  1.00  0.00    -0.327 N 
ATOM      5  H   UNL     1      -3.148   4.848   6.533  1.00  0.00     0.159 HD
ATOM      6  H   UNL     1      -2.300   4.424   5.150  1.00  0.00     0.159 HD
ATOM      7  H   UNL     1      -2.246   6.238   7.875  1.00  0.00     0.191 HD
ATOM      8  H   UNL     1       0.250   6.559   5.518  1.00  0.00     0.170 HD
ENDROOT
BRANCH   4   9
ATOM      9  C   UNL     1       0.340   4.649   4.812  1.00  0.00     0.041 A 
ATOM     10  C   UNL     1       1.141   3.757   5.539  1.00  0.00     0.027 A 
ATOM     11  C   UNL     1       0.144   4.400   3.447  1.00  0.00     0.034 A 
ATOM     12  C   UNL     1       1.723   2.644   4.932  1.00  0.00     0.011 A 
ATOM     13  C   UNL     1       0.728   3.286   2.814  1.00  0.00    -0.016 A 
ATOM     14  C   UNL     1       1.527   2.398   3.570  1.00  0.00    -0.018 A 
ATOM     15  C   UNL     1       0.539   3.030   1.447  1.00  0.00     0.009 A 
ATOM     16  C   UNL     1       2.117   1.289   2.948  1.00  0.00     0.009 A 
ATOM     17  C   UNL     1       1.142   1.927   0.837  1.00  0.00     0.001 A 
ATOM     18  C   UNL     1       1.930   1.057   1.586  1.00  0.00     0.001 A 
ENDBRANCH   4   9
TORSDOF 1
ENDMDL
MODEL 6
REMARK VINA RESULT:    -4.933     10.289     11.662
REMARK INTER + INTRA:          -5.299
REMARK INTER:                  -5.155
REMARK INTRA:                  -0.145
REMARK UNBOUND:                -0.078
REMARK SMILES [H]/N=C(\N)Nc1ccc2ccccc2c1
REMARK SMILES IDX 4 1 3 2 2 3 5 4 1 7 6 9 7 10 15 11 8 12 14 13 9 14 13 15
REMARK SMILES IDX 10 16 12 17 11 18
REMARK H PARENT 4 5 4 6 5 8
ROOT
ATOM      1  N   UNL     1       1.288   0.026   7.073  1.00  0.00    -0.370 N 
ATOM      2  C   UNL     1       2.552   0.505   7.052  1.00  0.00     0.190 C 
ATOM      3  N   UNL     1       3.477   0.000   7.788  1.00  0.00    -0.269 NA
ATOM      4  N   UNL     1       2.749   1.599   6.275  1.00  0.00    -0.327 N 
ATOM      5  H   UNL     1       1.030  -0.500   7.890  1.00  0.00     0.159 HD
ATOM      6  H   UNL     1       0.604   0.741   6.846  1.00  0.00     0.159 HD
ATOM      7  H   UNL     1       3.104  -0.824   8.269  1.00  0.00     0.191 HD
ATOM      8  H   UNL     1       3.664   2.017   6.396  1.00  0.00     0.170 HD
ENDROOT
BRANCH   4   9
ATOM      9  C   UNL     1       2.193   1.836   4.998  1.00  0.00     0.041 A 
ATOM     10  C   UNL     1       1.358   2.930   4.728  1.00  0.00     0.027 A 
ATOM     11  C   UNL     1       2.544   0.993   3.935  1.00  0.00     0.034 A 
ATOM     12  C   UNL     1       0.893   3.186   3.438  1.00  0.00     0.011 A 
ATOM     13  C   UNL     1       2.080   1.232   2.627  1.00  0.00    -0.016 A 
ATOM     14  C   UNL     1       1.244   2.345   2.379  1.00  0.00    -0.018 A 
ATOM     15  C   UNL     1       2.423   0.392   1.556  1.00  0.00     0.009 A 
ATOM     16  C   UNL     1       0.772   2.587   1.082  1.00  0.00     0.009 A 
ATOM     17  C   UNL     1       1.938   0.638   0.270  1.00  0.00     0.001 A 
ATOM     18  C   UNL     1       1.112   1.735   0.033  1.00  0.00     0.001 A 
ENDBRANCH   4   9
TORSDOF 1
ENDMDL
MODEL 7
REMARK VINA RESULT:    -4.795     10.128     11.473
REMARK INTER + INTRA:          -5.153
REMARK INTER:                  -4.988
REMARK INTRA:                  -0.165
REMARK UNBOUND:                -0.078
REMARK SMILES [H]/N=C(\N)Nc1ccc2ccccc2c1
REMARK SMILES IDX 4 1 3 2 2 3 5 4 1 7 6 9 7 10 15 11 8 12 14 13 9 14 13 15
REMARK SMILES IDX 10 16 12 17 11 18
REMARK H PARENT 4 5 4 6 5 8
ROOT
ATOM      1  N   UNL     1      -2.290   4.611   5.427  1.00  0.00    -0.370 N 
ATOM      2  C   UNL     1      -1.131   5.201   5.797  1.00  0.00     0.190 C 
ATOM      3  N   UNL     1      -0.933   5.602   7.003  1.00  0.00    -0.269 NA
ATOM      4  N   UNL     1      -0.241   5.418   4.798  1.00  0.00    -0.327 N 
ATOM      5  H   UNL     1      -3.082   4.786   6.021  1.00  0.00     0.159 HD
ATOM      6  H   UNL     1      -2.503   4.767   4.448  1.00  0.00     0.159 HD
ATOM      7  H   UNL     1      -1.727   5.313   7.581  1.00  0.00     0.191 HD
ATOM      8  H   UNL     1       0.547   5.990   5.079  1.00  0.00     0.170 HD
ENDROOT
BRANCH   4   9
ATOM      9  C   UNL     1       0.061   4.538   3.734  1.00  0.00     0.041 A 
ATOM     10  C   UNL     1      -0.284   4.814   2.404  1.00  0.00     0.027 A 
ATOM     11  C   UNL     1       0.802   3.378   3.998  1.00  0.00     0.034 A 
ATOM     12  C   UNL     1       0.102   3.968   1.364  1.00  0.00     0.011 A 
ATOM     13  C   UNL     1       1.196   2.508   2.964  1.00  0.00    -0.016 A 
ATOM     14  C   UNL     1       0.840   2.811   1.629  1.00  0.00    -0.018 A 
ATOM     15  C   UNL     1       1.935   1.343   3.219  1.00  0.00     0.009 A 
ATOM     16  C   UNL     1       1.223   1.949   0.593  1.00  0.00     0.009 A 
ATOM     17  C   UNL     1       2.301   0.486   2.178  1.00  0.00     0.001 A 
ATOM     18  C   UNL     1       1.945   0.789   0.866  1.00  0.00     0.001 A 
ENDBRANCH   4   9
TORSDOF 1
ENDMDL
MODEL 8
REMARK VINA RESULT:    -4.793     10.106     11.411
REMARK INTER + INTRA:          -5.151
REMARK INTER:                  -5.145
REMARK INTRA:                  -0.006
REMARK UNBOUND:                -0.078
REMARK SMILES [H]/N=C(\N)Nc1ccc2ccccc2c1
REMARK SMILES IDX 4 1 3 2 2 3 5 4 1 7 6 9 7 10 15 11 8 12 14 13 9 14 13 15
REMARK SMILES IDX 10 16 12 17 11 18
REMARK H PARENT 4 5 4 6 5 8
ROOT
ATOM      1  N   UNL     1       1.615  -0.538   6.528  1.00  0.00    -0.370 N 
ATOM      2  C   UNL     1       2.630   0.334   6.723  1.00  0.00     0.190 C 
ATOM      3  N   UNL     1       3.359   0.294   7.781  1.00  0.00    -0.269 NA
ATOM      4  N   UNL     1       2.761   1.297   5.778  1.00  0.00    -0.327 N 
ATOM      5  H   UNL     1       1.258  -0.989   7.352  1.00  0.00     0.159 HD
ATOM      6  H   UNL     1       0.876  -0.144   5.956  1.00  0.00     0.159 HD
ATOM      7  H   UNL     1       3.091  -0.524   8.336  1.00  0.00     0.191 HD
ATOM      8  H   UNL     1       3.430   2.016   6.029  1.00  0.00     0.170 HD
ENDROOT
BRANCH   4   9
ATOM      9  C   UNL     1       2.617   1.132   4.382  1.00  0.00     0.041 A 
ATOM     10  C   UNL     1       3.152   0.036   3.691  1.00  0.00     0.027 A 
ATOM     11  C   UNL     1       1.845   2.055   3.663  1.00  0.00     0.034 A 
ATOM     12  C   UNL     1       2.921  -0.145   2.327  1.00  0.00     0.011 A 
ATOM     13  C   UNL     1       1.605   1.893   2.285  1.00  0.00    -0.016 A 
ATOM     14  C   UNL     1       2.152   0.776   1.612  1.00  0.00    -0.018 A 
ATOM     15  C   UNL     1       0.837   2.813   1.556  1.00  0.00     0.009 A 
ATOM     16  C   UNL     1       1.923   0.610   0.239  1.00  0.00     0.009 A 
ATOM     17  C   UNL     1       0.625   2.642   0.186  1.00  0.00     0.001 A 
ATOM     18  C   UNL     1       1.168   1.541  -0.473  1.00  0.00     0.001 A 
ENDBRANCH   4   9
TORSDOF 1
ENDMDL
MODEL 9
REMARK VINA RESULT:    -4.730      2.866      4.727
REMARK INTER + INTRA:          -5.084
REMARK INTER:                  -4.927
REMARK INTRA:                  -0.157
REMARK UNBOUND:                -0.078
REMARK SMILES [H]/N=C(\N)Nc1ccc2ccccc2c1
REMARK SMILES IDX 4 1 3 2 2 3 5 4 1 7 6 9 7 10 15 11 8 12 14 13 9 14 13 15
REMARK SMILES IDX 10 16 12 17 11 18
REMARK H PARENT 4 5 4 6 5 8
ROOT
ATOM      1  N   UNL     1       5.374  11.209  -1.754  1.00  0.00    -0.370 N 
ATOM      2  C   UNL     1       4.302  10.414  -1.535  1.00  0.00     0.190 C 
ATOM      3  N   UNL     1       3.117  10.898  -1.415  1.00  0.00    -0.269 NA
ATOM      4  N   UNL     1       4.577   9.098  -1.364  1.00  0.00    -0.327 N 
ATOM      5  H   UNL     1       5.263  12.176  -1.503  1.00  0.00     0.159 HD
ATOM      6  H   UNL     1       6.228  10.811  -1.379  1.00  0.00     0.159 HD
ATOM      7  H   UNL     1       3.151  11.904  -1.603  1.00  0.00     0.191 HD
ATOM      8  H   UNL     1       3.776   8.558  -1.057  1.00  0.00     0.170 HD
ENDROOT
BRANCH   4   9
ATOM      9  C   UNL     1       5.521   8.334  -2.086  1.00  0.00     0.041 A 
ATOM     10  C   UNL     1       6.741   7.920  -1.533  1.00  0.00     0.027 A 
ATOM     11  C   UNL     1       5.202   7.904  -3.381  1.00  0.00     0.034 A 
ATOM     12  C   UNL     1       7.615   7.094  -2.240  1.00  0.00     0.011 A 
ATOM     13  C   UNL     1       6.073   7.075  -4.114  1.00  0.00    -0.016 A 
ATOM     14  C   UNL     1       7.296   6.667  -3.532  1.00  0.00    -0.018 A 
ATOM     15  C   UNL     1       5.764   6.642  -5.412  1.00  0.00     0.009 A 
ATOM     16  C   UNL     1       8.172   5.847  -4.256  1.00  0.00     0.009 A 
ATOM     17  C   UNL     1       6.651   5.834  -6.127  1.00  0.00     0.001 A 
ATOM     18  C   UNL     1       7.855   5.437  -5.549  1.00  0.00     0.001 A 
ENDBRANCH   4   9
TORSDOF 1
ENDMDL
