MODEL 1
REMARK VINA RESULT:    -7.165      0.000      0.000
REMARK INTER + INTRA:          -7.723
REMARK INTER:                  -7.584
REMARK INTRA:                  -0.139
REMARK UNBOUND:                -0.139
REMARK SMILES [H]/N=C(\N)Nc1ccc2ccccc2c1
REMARK SMILES IDX 4 1 3 2 2 3 5 4 1 7 6 9 7 10 15 11 8 12 14 13 9 14 13 15
REMARK SMILES IDX 10 16 12 17 11 18
REMARK H PARENT 4 5 4 6 5 8
ROOT
ATOM      1  N   UNL     1      21.344 -11.578  -6.498  1.00  0.00    -0.370 N 
ATOM      2  C   UNL     1      22.693 -11.508  -6.447  1.00  0.00     0.190 C 
ATOM      3  N   UNL     1      23.385 -12.238  -5.644  1.00  0.00    -0.269 NA
ATOM      4  N   UNL     1      23.284 -10.569  -7.229  1.00  0.00    -0.327 N 
ATOM      5  H   UNL     1      20.890 -11.967  -5.683  1.00  0.00     0.159 HD
ATOM      6  H   UNL     1      20.916 -10.709  -6.798  1.00  0.00     0.159 HD
ATOM      7  H   UNL     1      22.757 -12.882  -5.160  1.00  0.00     0.191 HD
ATOM      8  H   UNL     1      24.287 -10.527  -7.075  1.00  0.00     0.170 HD
ENDROOT
BRANCH   4   9
ATOM      9  C   UNL     1      22.940 -10.215  -8.552  1.00  0.00     0.041 A 
ATOM     10  C   UNL     1      22.929 -11.135  -9.605  1.00  0.00     0.027 A 
ATOM     11  C   UNL     1      22.554  -8.893  -8.821  1.00  0.00     0.034 A 
ATOM     12  C   UNL     1      22.525 -10.760 -10.887  1.00  0.00     0.011 A 
ATOM     13  C   UNL     1      22.137  -8.496 -10.105  1.00  0.00    -0.016 A 
ATOM     14  C   UNL     1      22.118  -9.446 -11.150  1.00  0.00    -0.018 A 
ATOM     15  C   UNL     1      21.729  -7.179 -10.375  1.00  0.00     0.009 A 
ATOM     16  C   UNL     1      21.695  -9.061 -12.430  1.00  0.00     0.009 A 
ATOM     17  C   UNL     1      21.309  -6.810 -11.655  1.00  0.00     0.001 A 
ATOM     18  C   UNL     1      21.292  -7.750 -12.681  1.00  0.00     0.001 A 
ENDBRANCH   4   9
TORSDOF 1
ENDMDL
MODEL 2
REMARK VINA RESULT:    -7.121      3.391      5.504
REMARK INTER + INTRA:          -7.676
REMARK INTER:                  -7.644
REMARK INTRA:                  -0.033
REMARK UNBOUND:                -0.139
REMARK SMILES [H]/N=C(\N)Nc1ccc2ccccc2c1
REMARK SMILES IDX 4 1 3 2 2 3 5 4 1 7 6 9 7 10 15 11 8 12 14 13 9 14 13 15
REMARK SMILES IDX 10 16 12 17 11 18
REMARK H PARENT 4 5 4 6 5 8
ROOT
ATOM      1  N   UNL     1      23.006  -6.233 -12.746  1.00  0.00    -0.370 N 
ATOM      2  C   UNL     1      21.738  -6.038 -12.319  1.00  0.00     0.190 C 
ATOM      3  N   UNL     1      20.917  -5.269 -12.944  1.00  0.00    -0.269 NA
ATOM      4  N   UNL     1      21.392  -6.630 -11.148  1.00  0.00    -0.327 N 
ATOM      5  H   UNL     1      23.379  -5.523 -13.362  1.00  0.00     0.159 HD
ATOM      6  H   UNL     1      23.644  -6.461 -11.992  1.00  0.00     0.159 HD
ATOM      7  H   UNL     1      21.364  -4.936 -13.801  1.00  0.00     0.191 HD
ATOM      8  H   UNL     1      20.454  -6.371 -10.858  1.00  0.00     0.170 HD
ENDROOT
BRANCH   4   9
ATOM      9  C   UNL     1      21.742  -7.925 -10.706  1.00  0.00     0.041 A 
ATOM     10  C   UNL     1      21.715  -9.044 -11.543  1.00  0.00     0.027 A 
ATOM     11  C   UNL     1      22.172  -8.095  -9.381  1.00  0.00     0.034 A 
ATOM     12  C   UNL     1      22.126 -10.297 -11.085  1.00  0.00     0.011 A 
ATOM     13  C   UNL     1      22.595  -9.349  -8.902  1.00  0.00    -0.016 A 
ATOM     14  C   UNL     1      22.576 -10.463  -9.770  1.00  0.00    -0.018 A 
ATOM     15  C   UNL     1      23.048  -9.522  -7.583  1.00  0.00     0.009 A 
ATOM     16  C   UNL     1      23.006 -11.714  -9.304  1.00  0.00     0.009 A 
ATOM     17  C   UNL     1      23.474 -10.773  -7.132  1.00  0.00     0.001 A 
ATOM     18  C   UNL     1      23.453 -11.867  -7.992  1.00  0.00     0.001 A 
ENDBRANCH   4   9
TORSDOF 1
ENDMDL
MODEL 3
REMARK VINA RESULT:    -6.637      2.131      3.026
REMARK INTER + INTRA:          -7.164
REMARK INTER:                  -7.212
REMARK INTRA:                   0.047
REMARK UNBOUND:                -0.139
REMARK SMILES [H]/N=C(\N)Nc1ccc2ccccc2c1
REMARK SMILES IDX 4 1 3 2 2 3 5 4 1 7 6 9 7 10 15 11 8 12 14 13 9 14 13 15
REMARK SMILES IDX 10 16 12 17 11 18
REMARK H PARENT 4 5 4 6 5 8
ROOT
ATOM      1  N   UNL     1      21.386 -11.915 -10.171  1.00  0.00    -0.370 N 
ATOM      2  C   UNL     1      20.951 -11.160  -9.139  1.00  0.00     0.190 C 
ATOM      3  N   UNL     1      20.853 -11.627  -7.944  1.00  0.00    -0.269 NA
ATOM      4  N   UNL     1      20.541  -9.900  -9.435  1.00  0.00    -0.327 N 
ATOM      5  H   UNL     1      21.319 -12.916 -10.046  1.00  0.00     0.159 HD
ATOM      6  H   UNL     1      21.010 -11.614 -11.064  1.00  0.00     0.159 HD
ATOM      7  H   UNL     1      21.223 -12.580  -7.931  1.00  0.00     0.191 HD
ATOM      8  H   UNL     1      20.157  -9.428  -8.622  1.00  0.00     0.170 HD
ENDROOT
BRANCH   4   9
ATOM      9  C   UNL     1      21.141  -8.993 -10.336  1.00  0.00     0.041 A 
ATOM     10  C   UNL     1      21.007  -9.103 -11.723  1.00  0.00     0.027 A 
ATOM     11  C   UNL     1      21.873  -7.911  -9.822  1.00  0.00     0.034 A 
ATOM     12  C   UNL     1      21.565  -8.152 -12.579  1.00  0.00     0.011 A 
ATOM     13  C   UNL     1      22.439  -6.940 -10.668  1.00  0.00    -0.016 A 
ATOM     14  C   UNL     1      22.276  -7.061 -12.066  1.00  0.00    -0.018 A 
ATOM     15  C   UNL     1      23.153  -5.842 -10.159  1.00  0.00     0.009 A 
ATOM     16  C   UNL     1      22.828  -6.091 -12.916  1.00  0.00     0.009 A 
ATOM     17  C   UNL     1      23.697  -4.884 -11.017  1.00  0.00     0.001 A 
ATOM     18  C   UNL     1      23.535  -5.008 -12.393  1.00  0.00     0.001 A 
ENDBRANCH   4   9
TORSDOF 1
ENDMDL
MODEL 4
REMARK VINA RESULT:    -6.539      0.965      2.096
REMARK INTER + INTRA:          -7.061
REMARK INTER:                  -7.088
REMARK INTRA:                   0.027
REMARK UNBOUND:                -0.139
REMARK SMILES [H]/N=C(\N)Nc1ccc2ccccc2c1
REMARK SMILES IDX 4 1 3 2 2 3 5 4 1 7 6 9 7 10 15 11 8 12 14 13 9 14 13 15
REMARK SMILES IDX 10 16 12 17 11 18
REMARK H PARENT 4 5 4 6 5 8
ROOT
ATOM      1  N   UNL     1      24.578 -11.171  -6.920  1.00  0.00    -0.370 N 
ATOM      2  C   UNL     1      23.327 -11.537  -6.566  1.00  0.00     0.190 C 
ATOM      3  N   UNL     1      23.078 -12.132  -5.452  1.00  0.00    -0.269 NA
ATOM      4  N   UNL     1      22.347 -11.321  -7.480  1.00  0.00    -0.327 N 
ATOM      5  H   UNL     1      25.331 -11.657  -6.451  1.00  0.00     0.159 HD
ATOM      6  H   UNL     1      24.709 -11.140  -7.925  1.00  0.00     0.159 HD
ATOM      7  H   UNL     1      23.941 -12.185  -4.907  1.00  0.00     0.191 HD
ATOM      8  H   UNL     1      21.455 -11.695  -7.171  1.00  0.00     0.170 HD
ENDROOT
BRANCH   4   9
ATOM      9  C   UNL     1      22.186 -10.193  -8.314  1.00  0.00     0.041 A 
ATOM     10  C   UNL     1      22.487  -8.893  -7.895  1.00  0.00     0.027 A 
ATOM     11  C   UNL     1      21.741 -10.381  -9.631  1.00  0.00     0.034 A 
ATOM     12  C   UNL     1      22.372  -7.810  -8.768  1.00  0.00     0.011 A 
ATOM     13  C   UNL     1      21.623  -9.303 -10.528  1.00  0.00    -0.016 A 
ATOM     14  C   UNL     1      21.950  -8.001 -10.089  1.00  0.00    -0.018 A 
ATOM     15  C   UNL     1      21.200  -9.488 -11.854  1.00  0.00     0.009 A 
ATOM     16  C   UNL     1      21.846  -6.922 -10.979  1.00  0.00     0.009 A 
ATOM     17  C   UNL     1      21.101  -8.405 -12.730  1.00  0.00     0.001 A 
ATOM     18  C   UNL     1      21.423  -7.124 -12.293  1.00  0.00     0.001 A 
ENDBRANCH   4   9
TORSDOF 1
ENDMDL
MODEL 5
REMARK VINA RESULT:    -6.452      4.628      6.566
REMARK INTER + INTRA:          -6.968
REMARK INTER:                  -6.809
REMARK INTRA:                  -0.159
REMARK UNBOUND:                -0.139
REMARK SMILES [H]/N=C(\N)Nc1ccc2ccccc2c1
REMARK SMILES IDX 4 1 3 2 2 3 5 4 1 7 6 9 7 10 15 11 8 12 14 13 9 14 13 15
REMARK SMILES IDX 10 16 12 17 11 18
REMARK H PARENT 4 5 4 6 5 8
ROOT
ATOM      1  N   UNL     1      20.664  -4.248 -13.660  1.00  0.00    -0.370 N 
ATOM      2  C   UNL     1      21.994  -4.090 -13.843  1.00  0.00     0.190 C 
ATOM      3  N   UNL     1      22.489  -3.028 -14.375  1.00  0.00    -0.269 NA
ATOM      4  N   UNL     1      22.784  -5.143 -13.511  1.00  0.00    -0.327 N 
ATOM      5  H   UNL     1      20.067  -3.671 -14.236  1.00  0.00     0.159 HD
ATOM      6  H   UNL     1      20.379  -5.222 -13.668  1.00  0.00     0.159 HD
ATOM      7  H   UNL     1      21.735  -2.358 -14.536  1.00  0.00     0.191 HD
ATOM      8  H   UNL     1      23.756  -4.975 -13.751  1.00  0.00     0.170 HD
ENDROOT
BRANCH   4   9
ATOM      9  C   UNL     1      22.658  -5.990 -12.388  1.00  0.00     0.041 A 
ATOM     10  C   UNL     1      22.899  -5.555 -11.081  1.00  0.00     0.027 A 
ATOM     11  C   UNL     1      22.235  -7.314 -12.582  1.00  0.00     0.034 A 
ATOM     12  C   UNL     1      22.704  -6.405  -9.991  1.00  0.00     0.011 A 
ATOM     13  C   UNL     1      22.028  -8.185 -11.496  1.00  0.00    -0.016 A 
ATOM     14  C   UNL     1      22.261  -7.720 -10.183  1.00  0.00    -0.018 A 
ATOM     15  C   UNL     1      21.583  -9.504 -11.681  1.00  0.00     0.009 A 
ATOM     16  C   UNL     1      22.047  -8.578  -9.094  1.00  0.00     0.009 A 
ATOM     17  C   UNL     1      21.374 -10.348 -10.589  1.00  0.00     0.001 A 
ATOM     18  C   UNL     1      21.606  -9.885  -9.297  1.00  0.00     0.001 A 
ENDBRANCH   4   9
TORSDOF 1
ENDMDL
MODEL 6
REMARK VINA RESULT:    -6.452      4.711      6.704
REMARK INTER + INTRA:          -6.968
REMARK INTER:                  -6.863
REMARK INTRA:                  -0.105
REMARK UNBOUND:                -0.139
REMARK SMILES [H]/N=C(\N)Nc1ccc2ccccc2c1
REMARK SMILES IDX 4 1 3 2 2 3 5 4 1 7 6 9 7 10 15 11 8 12 14 13 9 14 13 15
REMARK SMILES IDX 10 16 12 17 11 18
REMARK H PARENT 4 5 4 6 5 8
ROOT
ATOM      1  N   UNL     1      22.495  -7.043 -10.272  1.00  0.00    -0.370 N 
ATOM      2  C   UNL     1      22.161  -7.575 -11.468  1.00  0.00     0.190 C 
ATOM      3  N   UNL     1      21.482  -8.664 -11.566  1.00  0.00    -0.269 NA
ATOM      4  N   UNL     1      22.646  -6.949 -12.571  1.00  0.00    -0.327 N 
ATOM      5  H   UNL     1      22.482  -7.679  -9.485  1.00  0.00     0.159 HD
ATOM      6  H   UNL     1      23.349  -6.497 -10.309  1.00  0.00     0.159 HD
ATOM      7  H   UNL     1      21.204  -8.965 -10.630  1.00  0.00     0.191 HD
ATOM      8  H   UNL     1      22.417  -7.454 -13.422  1.00  0.00     0.170 HD
ENDROOT
BRANCH   4   9
ATOM      9  C   UNL     1      22.743  -5.558 -12.793  1.00  0.00     0.041 A 
ATOM     10  C   UNL     1      23.895  -4.823 -12.498  1.00  0.00     0.027 A 
ATOM     11  C   UNL     1      21.654  -4.886 -13.369  1.00  0.00     0.034 A 
ATOM     12  C   UNL     1      23.975  -3.460 -12.788  1.00  0.00     0.011 A 
ATOM     13  C   UNL     1      21.717  -3.513 -13.674  1.00  0.00    -0.016 A 
ATOM     14  C   UNL     1      22.897  -2.794 -13.383  1.00  0.00    -0.018 A 
ATOM     15  C   UNL     1      20.638  -2.839 -14.271  1.00  0.00     0.009 A 
ATOM     16  C   UNL     1      22.971  -1.428 -13.694  1.00  0.00     0.009 A 
ATOM     17  C   UNL     1      20.726  -1.479 -14.575  1.00  0.00     0.001 A 
ATOM     18  C   UNL     1      21.891  -0.774 -14.287  1.00  0.00     0.001 A 
ENDBRANCH   4   9
TORSDOF 1
ENDMDL
MODEL 7
REMARK VINA RESULT:    -5.806     16.010     17.604
REMARK INTER + INTRA:          -6.284
REMARK INTER:                  -6.358
REMARK INTRA:                   0.074
REMARK UNBOUND:                -0.139
REMARK SMILES [H]/N=C(\N)Nc1ccc2ccccc2c1
REMARK SMILES IDX 4 1 3 2 2 3 5 4 1 7 6 9 7 10 15 11 8 12 14 13 9 14 13 15
REMARK SMILES IDX 10 16 12 17 11 18
REMARK H PARENT 4 5 4 6 5 8
ROOT
ATOM      1  N   UNL     1      29.460  -0.751 -18.350  1.00  0.00    -0.370 N 
ATOM      2  C   UNL     1      30.597  -1.125 -17.721  1.00  0.00     0.190 C 
ATOM      3  N   UNL     1      31.061  -2.322 -17.805  1.00  0.00    -0.269 NA
ATOM      4  N   UNL     1      31.188  -0.196 -16.926  1.00  0.00    -0.327 N 
ATOM      5  H   UNL     1      28.830  -1.499 -18.607  1.00  0.00     0.159 HD
ATOM      6  H   UNL     1      28.981   0.009 -17.877  1.00  0.00     0.159 HD
ATOM      7  H   UNL     1      30.484  -2.855 -18.457  1.00  0.00     0.191 HD
ATOM      8  H   UNL     1      31.987  -0.579 -16.431  1.00  0.00     0.170 HD
ENDROOT
BRANCH   4   9
ATOM      9  C   UNL     1      31.340   1.183 -17.187  1.00  0.00     0.041 A 
ATOM     10  C   UNL     1      30.277   2.089 -17.116  1.00  0.00     0.027 A 
ATOM     11  C   UNL     1      32.616   1.679 -17.494  1.00  0.00     0.034 A 
ATOM     12  C   UNL     1      30.478   3.455 -17.321  1.00  0.00     0.011 A 
ATOM     13  C   UNL     1      32.841   3.053 -17.699  1.00  0.00    -0.016 A 
ATOM     14  C   UNL     1      31.756   3.952 -17.605  1.00  0.00    -0.018 A 
ATOM     15  C   UNL     1      34.121   3.557 -17.985  1.00  0.00     0.009 A 
ATOM     16  C   UNL     1      31.974   5.324 -17.798  1.00  0.00     0.009 A 
ATOM     17  C   UNL     1      34.323   4.926 -18.174  1.00  0.00     0.001 A 
ATOM     18  C   UNL     1      33.251   5.808 -18.081  1.00  0.00     0.001 A 
ENDBRANCH   4   9
TORSDOF 1
ENDMDL
MODEL 8
REMARK VINA RESULT:    -5.635     15.310     16.915
REMARK INTER + INTRA:          -6.103
REMARK INTER:                  -6.077
REMARK INTRA:                  -0.027
REMARK UNBOUND:                -0.139
REMARK SMILES [H]/N=C(\N)Nc1ccc2ccccc2c1
REMARK SMILES IDX 4 1 3 2 2 3 5 4 1 7 6 9 7 10 15 11 8 12 14 13 9 14 13 15
REMARK SMILES IDX 10 16 12 17 11 18
REMARK H PARENT 4 5 4 6 5 8
ROOT
ATOM      1  N   UNL     1      29.539  -0.931 -18.260  1.00  0.00    -0.370 N 
ATOM      2  C   UNL     1      30.687  -1.367 -17.698  1.00  0.00     0.190 C 
ATOM      3  N   UNL     1      31.108  -2.574 -17.852  1.00  0.00    -0.269 NA
ATOM      4  N   UNL     1      31.341  -0.494 -16.890  1.00  0.00    -0.327 N 
ATOM      5  H   UNL     1      28.874  -1.647 -18.522  1.00  0.00     0.159 HD
ATOM      6  H   UNL     1      29.105  -0.179 -17.736  1.00  0.00     0.159 HD
ATOM      7  H   UNL     1      30.487  -3.060 -18.501  1.00  0.00     0.191 HD
ATOM      8  H   UNL     1      32.147  -0.922 -16.446  1.00  0.00     0.170 HD
ENDROOT
BRANCH   4   9
ATOM      9  C   UNL     1      31.527   0.891 -17.098  1.00  0.00     0.041 A 
ATOM     10  C   UNL     1      32.627   1.412 -17.787  1.00  0.00     0.027 A 
ATOM     11  C   UNL     1      30.552   1.784 -16.629  1.00  0.00     0.034 A 
ATOM     12  C   UNL     1      32.745   2.782 -18.025  1.00  0.00     0.011 A 
ATOM     13  C   UNL     1      30.650   3.168 -16.863  1.00  0.00    -0.016 A 
ATOM     14  C   UNL     1      31.760   3.671 -17.576  1.00  0.00    -0.018 A 
ATOM     15  C   UNL     1      29.665   4.065 -16.415  1.00  0.00     0.009 A 
ATOM     16  C   UNL     1      31.861   5.048 -17.823  1.00  0.00     0.009 A 
ATOM     17  C   UNL     1      29.778   5.433 -16.668  1.00  0.00     0.001 A 
ATOM     18  C   UNL     1      30.874   5.924 -17.371  1.00  0.00     0.001 A 
ENDBRANCH   4   9
TORSDOF 1
ENDMDL
