MODEL 1
REMARK VINA RESULT:    -6.320      0.000      0.000
REMARK INTER + INTRA:          -6.908
REMARK INTER:                  -6.874
REMARK INTRA:                  -0.034
REMARK UNBOUND:                -0.034
REMARK SMILES [H]/N=C(/N)c1ccc(N)cc1
REMARK SMILES IDX 8 1 7 2 6 3 5 4 11 5 10 6 9 7 3 10 2 11 4 12 1 13
REMARK H PARENT 9 8 9 9 4 14 4 15
ROOT
ATOM      1  C   UNL     1      23.349  -9.918  -7.579  1.00  0.00     0.031 A 
ATOM      2  C   UNL     1      23.768 -10.861  -8.519  1.00  0.00     0.026 A 
ATOM      3  C   UNL     1      23.287 -10.829  -9.833  1.00  0.00     0.014 A 
ATOM      4  C   UNL     1      22.335  -9.876 -10.209  1.00  0.00     0.016 A 
ATOM      5  C   UNL     1      21.885  -8.950  -9.262  1.00  0.00     0.014 A 
ATOM      6  C   UNL     1      22.375  -8.989  -7.951  1.00  0.00     0.026 A 
ENDROOT
BRANCH   1   7
ATOM      7  N   UNL     1      23.718 -10.051  -6.237  1.00  0.00    -0.399 N 
ATOM      8  H   UNL     1      24.640  -9.686  -6.019  1.00  0.00     0.156 HD
ATOM      9  H   UNL     1      23.013  -9.739  -5.578  1.00  0.00     0.156 HD
ENDBRANCH   1   7
BRANCH   4  10
ATOM     10  C   UNL     1      21.782  -9.849 -11.594  1.00  0.00     0.122 C 
ATOM     11  N   UNL     1      20.519  -9.709 -11.850  1.00  0.00    -0.284 NA
ATOM     12  N   UNL     1      22.605  -9.974 -12.673  1.00  0.00    -0.384 N 
ATOM     13  H   UNL     1      19.976  -9.563 -10.996  1.00  0.00     0.189 HD
ATOM     14  H   UNL     1      23.409 -10.580 -12.566  1.00  0.00     0.158 HD
ATOM     15  H   UNL     1      22.073 -10.162 -13.517  1.00  0.00     0.158 HD
ENDBRANCH   4  10
TORSDOF 2
ENDMDL
MODEL 2
REMARK VINA RESULT:    -6.137      0.889      1.756
REMARK INTER + INTRA:          -6.709
REMARK INTER:                  -6.681
REMARK INTRA:                  -0.028
REMARK UNBOUND:                -0.034
REMARK SMILES [H]/N=C(/N)c1ccc(N)cc1
REMARK SMILES IDX 8 1 7 2 6 3 5 4 11 5 10 6 9 7 3 10 2 11 4 12 1 13
REMARK H PARENT 9 8 9 9 4 14 4 15
ROOT
ATOM      1  C   UNL     1      22.914  -9.708  -8.106  1.00  0.00     0.031 A 
ATOM      2  C   UNL     1      22.210  -8.560  -8.475  1.00  0.00     0.026 A 
ATOM      3  C   UNL     1      21.700  -8.415  -9.770  1.00  0.00     0.014 A 
ATOM      4  C   UNL     1      21.937  -9.401 -10.732  1.00  0.00     0.016 A 
ATOM      5  C   UNL     1      22.673 -10.537 -10.380  1.00  0.00     0.014 A 
ATOM      6  C   UNL     1      23.175 -10.675  -9.080  1.00  0.00     0.026 A 
ENDROOT
BRANCH   1   7
ATOM      7  N   UNL     1      23.545  -9.776  -6.860  1.00  0.00    -0.399 N 
ATOM      8  H   UNL     1      24.239  -9.051  -6.704  1.00  0.00     0.156 HD
ATOM      9  H   UNL     1      22.910  -9.878  -6.076  1.00  0.00     0.156 HD
ENDBRANCH   1   7
BRANCH   4  10
ATOM     10  C   UNL     1      21.436  -9.247 -12.129  1.00  0.00     0.122 C 
ATOM     11  N   UNL     1      20.362  -9.826 -12.564  1.00  0.00    -0.284 NA
ATOM     12  N   UNL     1      22.106  -8.469 -13.026  1.00  0.00    -0.384 N 
ATOM     13  H   UNL     1      19.885 -10.343 -11.822  1.00  0.00     0.189 HD
ATOM     14  H   UNL     1      23.116  -8.451 -12.949  1.00  0.00     0.158 HD
ATOM     15  H   UNL     1      21.780  -8.640 -13.971  1.00  0.00     0.158 HD
ENDBRANCH   4  10
TORSDOF 2
ENDMDL
MODEL 3
REMARK VINA RESULT:    -5.869      3.067      4.284
REMARK INTER + INTRA:          -6.418
REMARK INTER:                  -6.381
REMARK INTRA:                  -0.036
REMARK UNBOUND:                -0.034
REMARK SMILES [H]/N=C(/N)c1ccc(N)cc1
REMARK SMILES IDX 8 1 7 2 6 3 5 4 11 5 10 6 9 7 3 10 2 11 4 12 1 13
REMARK H PARENT 9 8 9 9 4 14 4 15
ROOT
ATOM      1  C   UNL     1      23.124  -5.583 -11.504  1.00  0.00     0.031 A 
ATOM      2  C   UNL     1      22.956  -6.294 -12.694  1.00  0.00     0.026 A 
ATOM      3  C   UNL     1      22.258  -7.507 -12.715  1.00  0.00     0.014 A 
ATOM      4  C   UNL     1      21.762  -8.051 -11.526  1.00  0.00     0.016 A 
ATOM      5  C   UNL     1      21.957  -7.363 -10.325  1.00  0.00     0.014 A 
ATOM      6  C   UNL     1      22.654  -6.148 -10.316  1.00  0.00     0.026 A 
ENDROOT
BRANCH   1   7
ATOM      7  N   UNL     1      23.949  -4.455 -11.469  1.00  0.00    -0.399 N 
ATOM      8  H   UNL     1      23.511  -3.631 -11.069  1.00  0.00     0.156 HD
ATOM      9  H   UNL     1      24.873  -4.626 -11.088  1.00  0.00     0.156 HD
ENDBRANCH   1   7
BRANCH   4  10
ATOM     10  C   UNL     1      21.049  -9.362 -11.522  1.00  0.00     0.122 C 
ATOM     11  N   UNL     1      20.316  -9.773 -12.508  1.00  0.00    -0.284 NA
ATOM     12  N   UNL     1      21.143 -10.200 -10.452  1.00  0.00    -0.384 N 
ATOM     13  H   UNL     1      20.341  -9.119 -13.294  1.00  0.00     0.189 HD
ATOM     14  H   UNL     1      21.210  -9.768  -9.538  1.00  0.00     0.158 HD
ATOM     15  H   UNL     1      20.439 -10.930 -10.498  1.00  0.00     0.158 HD
ENDBRANCH   4  10
TORSDOF 2
ENDMDL
MODEL 4
REMARK VINA RESULT:    -5.697      1.761      4.416
REMARK INTER + INTRA:          -6.231
REMARK INTER:                  -6.203
REMARK INTRA:                  -0.028
REMARK UNBOUND:                -0.034
REMARK SMILES [H]/N=C(/N)c1ccc(N)cc1
REMARK SMILES IDX 8 1 7 2 6 3 5 4 11 5 10 6 9 7 3 10 2 11 4 12 1 13
REMARK H PARENT 9 8 9 9 4 14 4 15
ROOT
ATOM      1  C   UNL     1      21.057  -7.911 -11.817  1.00  0.00     0.031 A 
ATOM      2  C   UNL     1      21.067  -9.266 -11.481  1.00  0.00     0.026 A 
ATOM      3  C   UNL     1      21.598  -9.700 -10.262  1.00  0.00     0.014 A 
ATOM      4  C   UNL     1      22.178  -8.781  -9.381  1.00  0.00     0.016 A 
ATOM      5  C   UNL     1      22.203  -7.426  -9.727  1.00  0.00     0.014 A 
ATOM      6  C   UNL     1      21.665  -7.002 -10.948  1.00  0.00     0.026 A 
ENDROOT
BRANCH   1   7
ATOM      7  N   UNL     1      20.663  -7.507 -13.097  1.00  0.00    -0.399 N 
ATOM      8  H   UNL     1      19.987  -6.749 -13.105  1.00  0.00     0.156 HD
ATOM      9  H   UNL     1      21.432  -7.346 -13.738  1.00  0.00     0.156 HD
ENDBRANCH   1   7
BRANCH   4  10
ATOM     10  C   UNL     1      22.784  -9.229  -8.094  1.00  0.00     0.122 C 
ATOM     11  N   UNL     1      22.138  -9.234  -6.970  1.00  0.00    -0.284 NA
ATOM     12  N   UNL     1      24.076  -9.661  -8.048  1.00  0.00    -0.384 N 
ATOM     13  H   UNL     1      21.163  -8.953  -7.095  1.00  0.00     0.189 HD
ATOM     14  H   UNL     1      24.732  -9.208  -8.673  1.00  0.00     0.158 HD
ATOM     15  H   UNL     1      24.408  -9.714  -7.090  1.00  0.00     0.158 HD
ENDBRANCH   4  10
TORSDOF 2
ENDMDL
MODEL 5
REMARK VINA RESULT:    -5.576      2.901      4.145
REMARK INTER + INTRA:          -6.099
REMARK INTER:                  -6.065
REMARK INTRA:                  -0.034
REMARK UNBOUND:                -0.034
REMARK SMILES [H]/N=C(/N)c1ccc(N)cc1
REMARK SMILES IDX 8 1 7 2 6 3 5 4 11 5 10 6 9 7 3 10 2 11 4 12 1 13
REMARK H PARENT 9 8 9 9 4 14 4 15
ROOT
ATOM      1  C   UNL     1      21.385  -9.870 -10.830  1.00  0.00     0.031 A 
ATOM      2  C   UNL     1      21.878  -8.890  -9.966  1.00  0.00     0.026 A 
ATOM      3  C   UNL     1      22.015  -7.563 -10.388  1.00  0.00     0.014 A 
ATOM      4  C   UNL     1      21.706  -7.209 -11.705  1.00  0.00     0.016 A 
ATOM      5  C   UNL     1      21.244  -8.192 -12.586  1.00  0.00     0.014 A 
ATOM      6  C   UNL     1      21.108  -9.517 -12.153  1.00  0.00     0.026 A 
ENDROOT
BRANCH   1   7
ATOM      7  N   UNL     1      21.395 -11.215 -10.447  1.00  0.00    -0.399 N 
ATOM      8  H   UNL     1      20.480 -11.655 -10.445  1.00  0.00     0.156 HD
ATOM      9  H   UNL     1      22.094 -11.777 -10.921  1.00  0.00     0.156 HD
ENDBRANCH   1   7
BRANCH   4  10
ATOM     10  C   UNL     1      21.881  -5.807 -12.185  1.00  0.00     0.122 C 
ATOM     11  N   UNL     1      22.925  -5.091 -11.911  1.00  0.00    -0.284 NA
ATOM     12  N   UNL     1      20.925  -5.210 -12.950  1.00  0.00    -0.384 N 
ATOM     13  H   UNL     1      23.621  -5.624 -11.385  1.00  0.00     0.189 HD
ATOM     14  H   UNL     1      19.962  -5.457 -12.754  1.00  0.00     0.158 HD
ATOM     15  H   UNL     1      21.076  -4.208 -13.006  1.00  0.00     0.158 HD
ENDBRANCH   4  10
TORSDOF 2
ENDMDL
MODEL 6
REMARK VINA RESULT:    -5.552      2.648      4.688
REMARK INTER + INTRA:          -6.072
REMARK INTER:                  -6.042
REMARK INTRA:                  -0.030
REMARK UNBOUND:                -0.034
REMARK SMILES [H]/N=C(/N)c1ccc(N)cc1
REMARK SMILES IDX 8 1 7 2 6 3 5 4 11 5 10 6 9 7 3 10 2 11 4 12 1 13
REMARK H PARENT 9 8 9 9 4 14 4 15
ROOT
ATOM      1  C   UNL     1      21.359  -6.531 -12.155  1.00  0.00     0.031 A 
ATOM      2  C   UNL     1      21.874  -6.352 -10.870  1.00  0.00     0.026 A 
ATOM      3  C   UNL     1      22.103  -7.447 -10.029  1.00  0.00     0.014 A 
ATOM      4  C   UNL     1      21.768  -8.738 -10.450  1.00  0.00     0.016 A 
ATOM      5  C   UNL     1      21.219  -8.921 -11.723  1.00  0.00     0.014 A 
ATOM      6  C   UNL     1      20.997  -7.819 -12.558  1.00  0.00     0.026 A 
ENDROOT
BRANCH   1   7
ATOM      7  N   UNL     1      20.994  -5.423 -12.927  1.00  0.00    -0.399 N 
ATOM      8  H   UNL     1      20.477  -5.654 -13.770  1.00  0.00     0.156 HD
ATOM      9  H   UNL     1      20.560  -4.673 -12.400  1.00  0.00     0.156 HD
ENDBRANCH   1   7
BRANCH   4  10
ATOM     10  C   UNL     1      21.969  -9.914  -9.554  1.00  0.00     0.122 C 
ATOM     11  N   UNL     1      23.138 -10.331  -9.184  1.00  0.00    -0.284 NA
ATOM     12  N   UNL     1      20.901 -10.613  -9.076  1.00  0.00    -0.384 N 
ATOM     13  H   UNL     1      23.883  -9.724  -9.534  1.00  0.00     0.189 HD
ATOM     14  H   UNL     1      20.100 -10.699  -9.690  1.00  0.00     0.158 HD
ATOM     15  H   UNL     1      21.195 -11.499  -8.677  1.00  0.00     0.158 HD
ENDBRANCH   4  10
TORSDOF 2
ENDMDL
MODEL 7
REMARK VINA RESULT:    -5.324      7.035      8.480
REMARK INTER + INTRA:          -5.825
REMARK INTER:                  -5.791
REMARK INTRA:                  -0.033
REMARK UNBOUND:                -0.034
REMARK SMILES [H]/N=C(/N)c1ccc(N)cc1
REMARK SMILES IDX 8 1 7 2 6 3 5 4 11 5 10 6 9 7 3 10 2 11 4 12 1 13
REMARK H PARENT 9 8 9 9 4 14 4 15
ROOT
ATOM      1  C   UNL     1      21.604  -1.711 -14.336  1.00  0.00     0.031 A 
ATOM      2  C   UNL     1      21.016  -2.971 -14.460  1.00  0.00     0.026 A 
ATOM      3  C   UNL     1      21.603  -4.099 -13.877  1.00  0.00     0.014 A 
ATOM      4  C   UNL     1      22.823  -3.987 -13.203  1.00  0.00     0.016 A 
ATOM      5  C   UNL     1      23.437  -2.734 -13.106  1.00  0.00     0.014 A 
ATOM      6  C   UNL     1      22.839  -1.610 -13.689  1.00  0.00     0.026 A 
ENDROOT
BRANCH   1   7
ATOM      7  N   UNL     1      21.091  -0.621 -15.046  1.00  0.00    -0.399 N 
ATOM      8  H   UNL     1      21.752  -0.191 -15.685  1.00  0.00     0.156 HD
ATOM      9  H   UNL     1      20.190  -0.794 -15.480  1.00  0.00     0.156 HD
ENDBRANCH   1   7
BRANCH   4  10
ATOM     10  C   UNL     1      23.485  -5.185 -12.609  1.00  0.00     0.122 C 
ATOM     11  N   UNL     1      23.974  -5.201 -11.409  1.00  0.00    -0.284 NA
ATOM     12  N   UNL     1      23.604  -6.339 -13.324  1.00  0.00    -0.384 N 
ATOM     13  H   UNL     1      23.796  -4.323 -10.918  1.00  0.00     0.189 HD
ATOM     14  H   UNL     1      23.749  -6.244 -14.322  1.00  0.00     0.158 HD
ATOM     15  H   UNL     1      24.261  -6.974 -12.883  1.00  0.00     0.158 HD
ENDBRANCH   4  10
TORSDOF 2
ENDMDL
MODEL 8
REMARK VINA RESULT:    -5.270      2.375      3.672
REMARK INTER + INTRA:          -5.766
REMARK INTER:                  -5.735
REMARK INTRA:                  -0.030
REMARK UNBOUND:                -0.034
REMARK SMILES [H]/N=C(/N)c1ccc(N)cc1
REMARK SMILES IDX 8 1 7 2 6 3 5 4 11 5 10 6 9 7 3 10 2 11 4 12 1 13
REMARK H PARENT 9 8 9 9 4 14 4 15
ROOT
ATOM      1  C   UNL     1      21.694  -7.354 -10.811  1.00  0.00     0.031 A 
ATOM      2  C   UNL     1      21.512  -8.236 -11.878  1.00  0.00     0.026 A 
ATOM      3  C   UNL     1      21.638  -9.618 -11.697  1.00  0.00     0.014 A 
ATOM      4  C   UNL     1      22.001 -10.132 -10.448  1.00  0.00     0.016 A 
ATOM      5  C   UNL     1      22.220  -9.252  -9.384  1.00  0.00     0.014 A 
ATOM      6  C   UNL     1      22.088  -7.871  -9.575  1.00  0.00     0.026 A 
ENDROOT
BRANCH   1   7
ATOM      7  N   UNL     1      21.715  -5.974 -11.036  1.00  0.00    -0.399 N 
ATOM      8  H   UNL     1      20.805  -5.528 -10.979  1.00  0.00     0.156 HD
ATOM      9  H   UNL     1      22.424  -5.476 -10.507  1.00  0.00     0.156 HD
ENDBRANCH   1   7
BRANCH   4  10
ATOM     10  C   UNL     1      22.178 -11.600 -10.244  1.00  0.00     0.122 C 
ATOM     11  N   UNL     1      23.316 -12.141  -9.945  1.00  0.00    -0.284 NA
ATOM     12  N   UNL     1      21.121 -12.451 -10.368  1.00  0.00    -0.384 N 
ATOM     13  H   UNL     1      24.045 -11.436  -9.812  1.00  0.00     0.189 HD
ATOM     14  H   UNL     1      20.425 -12.216 -11.066  1.00  0.00     0.158 HD
ATOM     15  H   UNL     1      21.434 -13.414 -10.425  1.00  0.00     0.158 HD
ENDBRANCH   4  10
TORSDOF 2
ENDMDL
MODEL 9
REMARK VINA RESULT:    -4.981      2.164      2.653
REMARK INTER + INTRA:          -5.452
REMARK INTER:                  -5.417
REMARK INTRA:                  -0.036
REMARK UNBOUND:                -0.034
REMARK SMILES [H]/N=C(/N)c1ccc(N)cc1
REMARK SMILES IDX 8 1 7 2 6 3 5 4 11 5 10 6 9 7 3 10 2 11 4 12 1 13
REMARK H PARENT 9 8 9 9 4 14 4 15
ROOT
ATOM      1  C   UNL     1      22.118 -10.730  -8.837  1.00  0.00     0.031 A 
ATOM      2  C   UNL     1      22.415  -9.495  -8.258  1.00  0.00     0.026 A 
ATOM      3  C   UNL     1      22.372  -8.318  -9.012  1.00  0.00     0.014 A 
ATOM      4  C   UNL     1      22.081  -8.370 -10.379  1.00  0.00     0.016 A 
ATOM      5  C   UNL     1      21.817  -9.608 -10.975  1.00  0.00     0.014 A 
ATOM      6  C   UNL     1      21.858 -10.780 -10.209  1.00  0.00     0.026 A 
ENDROOT
BRANCH   1   7
ATOM      7  N   UNL     1      22.310 -11.911  -8.114  1.00  0.00    -0.399 N 
ATOM      8  H   UNL     1      21.472 -12.474  -8.005  1.00  0.00     0.156 HD
ATOM      9  H   UNL     1      23.109 -12.460  -8.416  1.00  0.00     0.156 HD
ENDBRANCH   1   7
BRANCH   4  10
ATOM     10  C   UNL     1      22.068  -7.131 -11.210  1.00  0.00     0.122 C 
ATOM     11  N   UNL     1      21.617  -5.995 -10.780  1.00  0.00    -0.284 NA
ATOM     12  N   UNL     1      22.544  -7.145 -12.487  1.00  0.00    -0.384 N 
ATOM     13  H   UNL     1      21.333  -6.049  -9.799  1.00  0.00     0.189 HD
ATOM     14  H   UNL     1      22.398  -7.995 -13.018  1.00  0.00     0.158 HD
ATOM     15  H   UNL     1      22.267  -6.308 -12.988  1.00  0.00     0.158 HD
ENDBRANCH   4  10
TORSDOF 2
ENDMDL
