MODEL 1
REMARK VINA RESULT:    -7.164      0.000      0.000
REMARK INTER + INTRA:          -8.359
REMARK INTER:                  -8.211
REMARK INTRA:                  -0.148
REMARK UNBOUND:                -0.148
REMARK SMILES [H]/N=C(/N)Nc1ccc(C(=O)O)cc1
REMARK SMILES IDX 9 1 8 2 7 3 6 4 14 5 13 6 10 7 11 8 12 9 5 11 3 12 2 13 4 14
REMARK SMILES IDX 1 16
REMARK H PARENT 12 10 5 15 4 17 4 18
ROOT
ATOM      1  C   UNL     1      22.449 -11.253  -7.704  1.00  0.00     0.060 A 
ATOM      2  C   UNL     1      22.655 -11.889  -8.932  1.00  0.00     0.018 A 
ATOM      3  C   UNL     1      22.605 -11.159 -10.128  1.00  0.00     0.027 A 
ATOM      4  C   UNL     1      22.342  -9.784 -10.123  1.00  0.00     0.041 A 
ATOM      5  C   UNL     1      22.157  -9.159  -8.876  1.00  0.00     0.027 A 
ATOM      6  C   UNL     1      22.219  -9.876  -7.677  1.00  0.00     0.018 A 
ENDROOT
BRANCH   1   7
ATOM      7  C   UNL     1      22.547 -12.058  -6.461  1.00  0.00     0.335 C 
ATOM      8  O   UNL     1      23.573 -12.152  -5.812  1.00  0.00    -0.246 OA
BRANCH   7   9
ATOM      9  O   UNL     1      21.404 -12.698  -6.133  1.00  0.00    -0.478 OA
ATOM     10  H   UNL     1      21.423 -13.665  -6.246  1.00  0.00     0.297 HD
ENDBRANCH   7   9
ENDBRANCH   1   7
BRANCH   4  11
ATOM     11  N   UNL     1      22.272  -8.990 -11.278  1.00  0.00    -0.327 N 
ATOM     12  C   UNL     1      21.430  -9.028 -12.339  1.00  0.00     0.190 C 
ATOM     13  N   UNL     1      20.343  -9.681 -12.528  1.00  0.00    -0.269 NA
ATOM     14  N   UNL     1      21.824  -8.179 -13.316  1.00  0.00    -0.370 N 
ATOM     15  H   UNL     1      22.801  -8.130 -11.227  1.00  0.00     0.170 HD
ATOM     16  H   UNL     1      20.117 -10.218 -11.690  1.00  0.00     0.191 HD
ATOM     17  H   UNL     1      22.784  -8.319 -13.608  1.00  0.00     0.159 HD
ATOM     18  H   UNL     1      21.203  -8.289 -14.114  1.00  0.00     0.159 HD
ENDBRANCH   4  11
TORSDOF 3
ENDMDL
MODEL 2
REMARK VINA RESULT:    -6.506      4.626      5.968
REMARK INTER + INTRA:          -7.605
REMARK INTER:                  -7.443
REMARK INTRA:                  -0.162
REMARK UNBOUND:                -0.148
REMARK SMILES [H]/N=C(/N)Nc1ccc(C(=O)O)cc1
REMARK SMILES IDX 9 1 8 2 7 3 6 4 14 5 13 6 10 7 11 8 12 9 5 11 3 12 2 13 4 14
REMARK SMILES IDX 1 16
REMARK H PARENT 12 10 5 15 4 17 4 18
ROOT
ATOM      1  C   UNL     1      22.159  -6.777 -11.752  1.00  0.00     0.060 A 
ATOM      2  C   UNL     1      21.512  -7.834 -12.399  1.00  0.00     0.018 A 
ATOM      3  C   UNL     1      20.996  -8.910 -11.663  1.00  0.00     0.027 A 
ATOM      4  C   UNL     1      21.121  -8.955 -10.270  1.00  0.00     0.041 A 
ATOM      5  C   UNL     1      21.758  -7.873  -9.635  1.00  0.00     0.027 A 
ATOM      6  C   UNL     1      22.263  -6.789 -10.360  1.00  0.00     0.018 A 
ENDROOT
BRANCH   1   7
ATOM      7  C   UNL     1      22.658  -5.642 -12.567  1.00  0.00     0.335 C 
ATOM      8  O   UNL     1      23.843  -5.400 -12.711  1.00  0.00    -0.246 OA
BRANCH   7   9
ATOM      9  O   UNL     1      21.679  -4.887 -13.109  1.00  0.00    -0.478 OA
ATOM     10  H   UNL     1      21.960  -4.012 -13.432  1.00  0.00     0.297 HD
ENDBRANCH   7   9
ENDBRANCH   1   7
BRANCH   4  11
ATOM     11  N   UNL     1      20.634  -9.999  -9.468  1.00  0.00    -0.327 N 
ATOM     12  C   UNL     1      21.246 -11.099  -8.964  1.00  0.00     0.190 C 
ATOM     13  N   UNL     1      22.484 -11.427  -8.919  1.00  0.00    -0.269 NA
ATOM     14  N   UNL     1      20.357 -11.935  -8.377  1.00  0.00    -0.370 N 
ATOM     15  H   UNL     1      19.743  -9.810  -9.029  1.00  0.00     0.170 HD
ATOM     16  H   UNL     1      23.050 -10.679  -9.321  1.00  0.00     0.191 HD
ATOM     17  H   UNL     1      19.587 -12.192  -8.983  1.00  0.00     0.159 HD
ATOM     18  H   UNL     1      20.850 -12.771  -8.073  1.00  0.00     0.159 HD
ENDBRANCH   4  11
TORSDOF 3
ENDMDL
MODEL 3
REMARK VINA RESULT:    -6.454      2.971      4.028
REMARK INTER + INTRA:          -7.545
REMARK INTER:                  -7.370
REMARK INTRA:                  -0.175
REMARK UNBOUND:                -0.148
REMARK SMILES [H]/N=C(/N)Nc1ccc(C(=O)O)cc1
REMARK SMILES IDX 9 1 8 2 7 3 6 4 14 5 13 6 10 7 11 8 12 9 5 11 3 12 2 13 4 14
REMARK SMILES IDX 1 16
REMARK H PARENT 12 10 5 15 4 17 4 18
ROOT
ATOM      1  C   UNL     1      21.769  -9.372 -10.506  1.00  0.00     0.060 A 
ATOM      2  C   UNL     1      21.621  -9.311 -11.895  1.00  0.00     0.018 A 
ATOM      3  C   UNL     1      21.715  -8.084 -12.566  1.00  0.00     0.027 A 
ATOM      4  C   UNL     1      21.949  -6.895 -11.866  1.00  0.00     0.041 A 
ATOM      5  C   UNL     1      22.114  -6.980 -10.472  1.00  0.00     0.027 A 
ATOM      6  C   UNL     1      22.037  -8.202  -9.794  1.00  0.00     0.018 A 
ENDROOT
BRANCH   1   7
ATOM      7  C   UNL     1      21.699 -10.697  -9.840  1.00  0.00     0.335 C 
ATOM      8  O   UNL     1      21.968 -10.862  -8.664  1.00  0.00    -0.246 OA
BRANCH   7   9
ATOM      9  O   UNL     1      21.340 -11.704 -10.665  1.00  0.00    -0.478 OA
ATOM     10  H   UNL     1      20.756 -12.376 -10.269  1.00  0.00     0.297 HD
ENDBRANCH   7   9
ENDBRANCH   1   7
BRANCH   4  11
ATOM     11  N   UNL     1      22.050  -5.632 -12.469  1.00  0.00    -0.327 N 
ATOM     12  C   UNL     1      23.123  -4.844 -12.719  1.00  0.00     0.190 C 
ATOM     13  N   UNL     1      24.381  -5.085 -12.642  1.00  0.00    -0.269 NA
ATOM     14  N   UNL     1      22.749  -3.624 -13.170  1.00  0.00    -0.370 N 
ATOM     15  H   UNL     1      21.224  -5.344 -12.977  1.00  0.00     0.170 HD
ATOM     16  H   UNL     1      24.526  -6.057 -12.369  1.00  0.00     0.191 HD
ATOM     17  H   UNL     1      22.088  -3.156 -12.562  1.00  0.00     0.159 HD
ATOM     18  H   UNL     1      23.580  -3.049 -13.281  1.00  0.00     0.159 HD
ENDBRANCH   4  11
TORSDOF 3
ENDMDL
MODEL 4
REMARK VINA RESULT:    -6.430      4.317      5.859
REMARK INTER + INTRA:          -7.518
REMARK INTER:                  -7.351
REMARK INTRA:                  -0.167
REMARK UNBOUND:                -0.148
REMARK SMILES [H]/N=C(/N)Nc1ccc(C(=O)O)cc1
REMARK SMILES IDX 9 1 8 2 7 3 6 4 14 5 13 6 10 7 11 8 12 9 5 11 3 12 2 13 4 14
REMARK SMILES IDX 1 16
REMARK H PARENT 12 10 5 15 4 17 4 18
ROOT
ATOM      1  C   UNL     1      21.534  -8.994 -11.173  1.00  0.00     0.060 A 
ATOM      2  C   UNL     1      21.493  -8.133 -10.072  1.00  0.00     0.018 A 
ATOM      3  C   UNL     1      21.679  -8.630  -8.774  1.00  0.00     0.027 A 
ATOM      4  C   UNL     1      21.901  -9.993  -8.549  1.00  0.00     0.041 A 
ATOM      5  C   UNL     1      21.958 -10.841  -9.671  1.00  0.00     0.027 A 
ATOM      6  C   UNL     1      21.788 -10.352 -10.971  1.00  0.00     0.018 A 
ENDROOT
BRANCH   1   7
ATOM      7  C   UNL     1      21.368  -8.420 -12.531  1.00  0.00     0.335 C 
ATOM      8  O   UNL     1      20.342  -8.533 -13.177  1.00  0.00    -0.246 OA
BRANCH   7   9
ATOM      9  O   UNL     1      22.468  -7.789 -12.995  1.00  0.00    -0.478 OA
ATOM     10  H   UNL     1      23.143  -7.585 -12.324  1.00  0.00     0.297 HD
ENDBRANCH   7   9
ENDBRANCH   1   7
BRANCH   4  11
ATOM     11  N   UNL     1      22.091 -10.562  -7.280  1.00  0.00    -0.327 N 
ATOM     12  C   UNL     1      23.212 -10.750  -6.543  1.00  0.00     0.190 C 
ATOM     13  N   UNL     1      24.406 -10.311  -6.701  1.00  0.00    -0.269 NA
ATOM     14  N   UNL     1      22.962 -11.493  -5.439  1.00  0.00    -0.370 N 
ATOM     15  H   UNL     1      21.242 -10.673  -6.740  1.00  0.00     0.170 HD
ATOM     16  H   UNL     1      24.441  -9.704  -7.520  1.00  0.00     0.191 HD
ATOM     17  H   UNL     1      22.508 -12.375  -5.643  1.00  0.00     0.159 HD
ATOM     18  H   UNL     1      23.840 -11.661  -4.954  1.00  0.00     0.159 HD
ENDBRANCH   4  11
TORSDOF 3
ENDMDL
MODEL 5
REMARK VINA RESULT:    -6.394      5.211      6.569
REMARK INTER + INTRA:          -7.476
REMARK INTER:                  -7.303
REMARK INTRA:                  -0.173
REMARK UNBOUND:                -0.148
REMARK SMILES [H]/N=C(/N)Nc1ccc(C(=O)O)cc1
REMARK SMILES IDX 9 1 8 2 7 3 6 4 14 5 13 6 10 7 11 8 12 9 5 11 3 12 2 13 4 14
REMARK SMILES IDX 1 16
REMARK H PARENT 12 10 5 15 4 17 4 18
ROOT
ATOM      1  C   UNL     1      23.006  -5.483 -12.093  1.00  0.00     0.060 A 
ATOM      2  C   UNL     1      22.644  -6.573 -12.891  1.00  0.00     0.018 A 
ATOM      3  C   UNL     1      22.227  -7.776 -12.303  1.00  0.00     0.027 A 
ATOM      4  C   UNL     1      22.171  -7.917 -10.912  1.00  0.00     0.041 A 
ATOM      5  C   UNL     1      22.521  -6.803 -10.127  1.00  0.00     0.027 A 
ATOM      6  C   UNL     1      22.924  -5.594 -10.704  1.00  0.00     0.018 A 
ENDROOT
BRANCH   1   7
ATOM      7  C   UNL     1      23.406  -4.218 -12.758  1.00  0.00     0.335 C 
ATOM      8  O   UNL     1      23.247  -4.016 -13.948  1.00  0.00    -0.246 OA
BRANCH   7   9
ATOM      9  O   UNL     1      23.989  -3.326 -11.928  1.00  0.00    -0.478 OA
ATOM     10  H   UNL     1      24.961  -3.292 -11.973  1.00  0.00     0.297 HD
ENDBRANCH   7   9
ENDBRANCH   1   7
BRANCH   4  11
ATOM     11  N   UNL     1      21.769  -9.090 -10.254  1.00  0.00    -0.327 N 
ATOM     12  C   UNL     1      20.624  -9.400  -9.599  1.00  0.00     0.190 C 
ATOM     13  N   UNL     1      19.500  -8.786  -9.533  1.00  0.00    -0.269 NA
ATOM     14  N   UNL     1      20.721 -10.592  -8.966  1.00  0.00    -0.370 N 
ATOM     15  H   UNL     1      22.333  -9.903 -10.465  1.00  0.00     0.170 HD
ATOM     16  H   UNL     1      19.533  -7.949 -10.114  1.00  0.00     0.191 HD
ATOM     17  H   UNL     1      21.522 -10.655  -8.348  1.00  0.00     0.159 HD
ATOM     18  H   UNL     1      19.867 -10.752  -8.438  1.00  0.00     0.159 HD
ENDBRANCH   4  11
TORSDOF 3
ENDMDL
MODEL 6
REMARK VINA RESULT:    -6.368      1.396      2.157
REMARK INTER + INTRA:          -7.446
REMARK INTER:                  -7.508
REMARK INTRA:                   0.062
REMARK UNBOUND:                -0.148
REMARK SMILES [H]/N=C(/N)Nc1ccc(C(=O)O)cc1
REMARK SMILES IDX 9 1 8 2 7 3 6 4 14 5 13 6 10 7 11 8 12 9 5 11 3 12 2 13 4 14
REMARK SMILES IDX 1 16
REMARK H PARENT 12 10 5 15 4 17 4 18
ROOT
ATOM      1  C   UNL     1      23.004 -10.820  -7.805  1.00  0.00     0.060 A 
ATOM      2  C   UNL     1      22.500  -9.539  -7.558  1.00  0.00     0.018 A 
ATOM      3  C   UNL     1      22.196  -8.678  -8.622  1.00  0.00     0.027 A 
ATOM      4  C   UNL     1      22.396  -9.073  -9.950  1.00  0.00     0.041 A 
ATOM      5  C   UNL     1      22.886 -10.372 -10.178  1.00  0.00     0.027 A 
ATOM      6  C   UNL     1      23.178 -11.244  -9.123  1.00  0.00     0.018 A 
ENDROOT
BRANCH   1   7
ATOM      7  C   UNL     1      23.278 -11.711  -6.650  1.00  0.00     0.335 C 
ATOM      8  O   UNL     1      24.398 -11.908  -6.217  1.00  0.00    -0.246 OA
BRANCH   7   9
ATOM      9  O   UNL     1      22.175 -12.304  -6.145  1.00  0.00    -0.478 OA
ATOM     10  H   UNL     1      22.305 -12.771  -5.300  1.00  0.00     0.297 HD
ENDBRANCH   7   9
ENDBRANCH   1   7
BRANCH   4  11
ATOM     11  N   UNL     1      22.120  -8.266 -11.063  1.00  0.00    -0.327 N 
ATOM     12  C   UNL     1      22.026  -6.920 -11.190  1.00  0.00     0.190 C 
ATOM     13  N   UNL     1      22.331  -5.975 -10.379  1.00  0.00    -0.269 NA
ATOM     14  N   UNL     1      21.575  -6.567 -12.417  1.00  0.00    -0.370 N 
ATOM     15  H   UNL     1      22.196  -8.740 -11.954  1.00  0.00     0.170 HD
ATOM     16  H   UNL     1      22.731  -6.371  -9.528  1.00  0.00     0.191 HD
ATOM     17  H   UNL     1      20.705  -7.018 -12.670  1.00  0.00     0.159 HD
ATOM     18  H   UNL     1      21.460  -5.557 -12.444  1.00  0.00     0.159 HD
ENDBRANCH   4  11
TORSDOF 3
ENDMDL
MODEL 7
REMARK VINA RESULT:    -6.299      3.377      4.707
REMARK INTER + INTRA:          -7.368
REMARK INTER:                  -7.199
REMARK INTRA:                  -0.168
REMARK UNBOUND:                -0.148
REMARK SMILES [H]/N=C(/N)Nc1ccc(C(=O)O)cc1
REMARK SMILES IDX 9 1 8 2 7 3 6 4 14 5 13 6 10 7 11 8 12 9 5 11 3 12 2 13 4 14
REMARK SMILES IDX 1 16
REMARK H PARENT 12 10 5 15 4 17 4 18
ROOT
ATOM      1  C   UNL     1      21.754  -7.941 -10.196  1.00  0.00     0.060 A 
ATOM      2  C   UNL     1      22.485  -6.770  -9.970  1.00  0.00     0.018 A 
ATOM      3  C   UNL     1      22.774  -5.898 -11.028  1.00  0.00     0.027 A 
ATOM      4  C   UNL     1      22.349  -6.179 -12.332  1.00  0.00     0.041 A 
ATOM      5  C   UNL     1      21.599  -7.352 -12.536  1.00  0.00     0.027 A 
ATOM      6  C   UNL     1      21.292  -8.221 -11.483  1.00  0.00     0.018 A 
ENDROOT
BRANCH   1   7
ATOM      7  C   UNL     1      21.439  -8.818  -9.041  1.00  0.00     0.335 C 
ATOM      8  O   UNL     1      22.093  -8.819  -8.013  1.00  0.00    -0.246 OA
BRANCH   7   9
ATOM      9  O   UNL     1      20.382  -9.633  -9.246  1.00  0.00    -0.478 OA
ATOM     10  H   UNL     1      20.303  -9.989 -10.149  1.00  0.00     0.297 HD
ENDBRANCH   7   9
ENDBRANCH   1   7
BRANCH   4  11
ATOM     11  N   UNL     1      22.605  -5.357 -13.439  1.00  0.00    -0.327 N 
ATOM     12  C   UNL     1      23.759  -5.061 -14.086  1.00  0.00     0.190 C 
ATOM     13  N   UNL     1      24.930  -5.574 -13.994  1.00  0.00    -0.269 NA
ATOM     14  N   UNL     1      23.576  -4.086 -15.007  1.00  0.00    -0.370 N 
ATOM     15  H   UNL     1      21.782  -5.095 -13.966  1.00  0.00     0.170 HD
ATOM     16  H   UNL     1      24.913  -6.346 -13.326  1.00  0.00     0.191 HD
ATOM     17  H   UNL     1      23.146  -3.251 -14.629  1.00  0.00     0.159 HD
ATOM     18  H   UNL     1      24.476  -3.854 -15.419  1.00  0.00     0.159 HD
ENDBRANCH   4  11
TORSDOF 3
ENDMDL
MODEL 8
REMARK VINA RESULT:    -6.262      4.275      5.604
REMARK INTER + INTRA:          -7.325
REMARK INTER:                  -7.158
REMARK INTRA:                  -0.167
REMARK UNBOUND:                -0.148
REMARK SMILES [H]/N=C(/N)Nc1ccc(C(=O)O)cc1
REMARK SMILES IDX 9 1 8 2 7 3 6 4 14 5 13 6 10 7 11 8 12 9 5 11 3 12 2 13 4 14
REMARK SMILES IDX 1 16
REMARK H PARENT 12 10 5 15 4 17 4 18
ROOT
ATOM      1  C   UNL     1      21.796  -8.999 -11.155  1.00  0.00     0.060 A 
ATOM      2  C   UNL     1      22.403 -10.259 -11.162  1.00  0.00     0.018 A 
ATOM      3  C   UNL     1      22.844 -10.842  -9.965  1.00  0.00     0.027 A 
ATOM      4  C   UNL     1      22.694 -10.178  -8.742  1.00  0.00     0.041 A 
ATOM      5  C   UNL     1      22.064  -8.921  -8.753  1.00  0.00     0.027 A 
ATOM      6  C   UNL     1      21.608  -8.337  -9.941  1.00  0.00     0.018 A 
ENDROOT
BRANCH   1   7
ATOM      7  C   UNL     1      21.312  -8.436 -12.440  1.00  0.00     0.335 C 
ATOM      8  O   UNL     1      20.284  -8.803 -12.978  1.00  0.00    -0.246 OA
BRANCH   7   9
ATOM      9  O   UNL     1      22.131  -7.502 -12.970  1.00  0.00    -0.478 OA
ATOM     10  H   UNL     1      23.081  -7.643 -12.806  1.00  0.00     0.297 HD
ENDBRANCH   7   9
ENDBRANCH   1   7
BRANCH   4  11
ATOM     11  N   UNL     1      23.115 -10.697  -7.508  1.00  0.00    -0.327 N 
ATOM     12  C   UNL     1      22.438 -11.363  -6.541  1.00  0.00     0.190 C 
ATOM     13  N   UNL     1      21.261 -11.872  -6.536  1.00  0.00    -0.269 NA
ATOM     14  N   UNL     1      23.196 -11.534  -5.432  1.00  0.00    -0.370 N 
ATOM     15  H   UNL     1      24.118 -10.763  -7.401  1.00  0.00     0.170 HD
ATOM     16  H   UNL     1      20.830 -11.744  -7.451  1.00  0.00     0.191 HD
ATOM     17  H   UNL     1      23.586 -10.670  -5.075  1.00  0.00     0.159 HD
ATOM     18  H   UNL     1      22.629 -11.978  -4.715  1.00  0.00     0.159 HD
ENDBRANCH   4  11
TORSDOF 3
ENDMDL
MODEL 9
REMARK VINA RESULT:    -6.193      7.971      9.732
REMARK INTER + INTRA:          -7.245
REMARK INTER:                  -7.067
REMARK INTRA:                  -0.178
REMARK UNBOUND:                -0.148
REMARK SMILES [H]/N=C(/N)Nc1ccc(C(=O)O)cc1
REMARK SMILES IDX 9 1 8 2 7 3 6 4 14 5 13 6 10 7 11 8 12 9 5 11 3 12 2 13 4 14
REMARK SMILES IDX 1 16
REMARK H PARENT 12 10 5 15 4 17 4 18
ROOT
ATOM      1  C   UNL     1      22.038  -1.740 -14.174  1.00  0.00     0.060 A 
ATOM      2  C   UNL     1      20.991  -2.641 -14.393  1.00  0.00     0.018 A 
ATOM      3  C   UNL     1      21.098  -3.972 -13.968  1.00  0.00     0.027 A 
ATOM      4  C   UNL     1      22.252  -4.433 -13.325  1.00  0.00     0.041 A 
ATOM      5  C   UNL     1      23.287  -3.508 -13.096  1.00  0.00     0.027 A 
ATOM      6  C   UNL     1      23.183  -2.173 -13.504  1.00  0.00     0.018 A 
ENDROOT
BRANCH   1   7
ATOM      7  C   UNL     1      21.867  -0.331 -14.608  1.00  0.00     0.335 C 
ATOM      8  O   UNL     1      22.490   0.593 -14.117  1.00  0.00    -0.246 OA
BRANCH   7   9
ATOM      9  O   UNL     1      20.938  -0.166 -15.575  1.00  0.00    -0.478 OA
ATOM     10  H   UNL     1      21.038   0.640 -16.112  1.00  0.00     0.297 HD
ENDBRANCH   7   9
ENDBRANCH   1   7
BRANCH   4  11
ATOM     11  N   UNL     1      22.432  -5.751 -12.877  1.00  0.00    -0.327 N 
ATOM     12  C   UNL     1      22.179  -6.330 -11.678  1.00  0.00     0.190 C 
ATOM     13  N   UNL     1      21.539  -5.899 -10.654  1.00  0.00    -0.269 NA
ATOM     14  N   UNL     1      22.661  -7.594 -11.626  1.00  0.00    -0.370 N 
ATOM     15  H   UNL     1      22.591  -6.425 -13.613  1.00  0.00     0.170 HD
ATOM     16  H   UNL     1      21.162  -4.972 -10.852  1.00  0.00     0.191 HD
ATOM     17  H   UNL     1      23.644  -7.659 -11.860  1.00  0.00     0.159 HD
ATOM     18  H   UNL     1      22.505  -7.963 -10.691  1.00  0.00     0.159 HD
ENDBRANCH   4  11
TORSDOF 3
ENDMDL
