MODEL 1
REMARK VINA RESULT:    -5.000      0.000      0.000
REMARK INTER + INTRA:          -5.872
REMARK INTER:                  -5.731
REMARK INTRA:                  -0.141
REMARK UNBOUND:                -0.141
REMARK SMILES [H]/N=C(/N)Nc1ccc(C(=O)O)cc1
REMARK SMILES IDX 9 1 8 2 7 3 6 4 14 5 13 6 10 7 11 8 12 9 5 11 3 12 2 13 4 14
REMARK SMILES IDX 1 16
REMARK H PARENT 12 10 5 15 4 17 4 18
ROOT
ATOM      1  C   UNL     1       1.299   2.398   9.589  1.00  0.00     0.060 A 
ATOM      2  C   UNL     1       2.249   2.665  10.580  1.00  0.00     0.018 A 
ATOM      3  C   UNL     1       3.610   2.420  10.345  1.00  0.00     0.027 A 
ATOM      4  C   UNL     1       4.048   1.905   9.121  1.00  0.00     0.041 A 
ATOM      5  C   UNL     1       3.079   1.651   8.132  1.00  0.00     0.027 A 
ATOM      6  C   UNL     1       1.721   1.903   8.353  1.00  0.00     0.018 A 
ENDROOT
BRANCH   1   7
ATOM      7  C   UNL     1      -0.125   2.717   9.865  1.00  0.00     0.335 C 
ATOM      8  O   UNL     1      -0.707   2.330  10.861  1.00  0.00    -0.246 OA
BRANCH   7   9
ATOM      9  O   UNL     1      -0.718   3.448   8.898  1.00  0.00    -0.478 OA
ATOM     10  H   UNL     1      -1.471   3.994   9.191  1.00  0.00     0.297 HD
ENDBRANCH   7   9
ENDBRANCH   1   7
BRANCH   4  11
ATOM     11  N   UNL     1       5.389   1.640   8.810  1.00  0.00    -0.327 N 
ATOM     12  C   UNL     1       6.307   0.830   9.396  1.00  0.00     0.190 C 
ATOM     13  N   UNL     1       6.184  -0.059  10.310  1.00  0.00    -0.269 NA
ATOM     14  N   UNL     1       7.537   0.992   8.852  1.00  0.00    -0.370 N 
ATOM     15  H   UNL     1       5.683   1.974   7.901  1.00  0.00     0.170 HD
ATOM     16  H   UNL     1       5.204  -0.139  10.580  1.00  0.00     0.191 HD
ATOM     17  H   UNL     1       7.859   1.951   8.865  1.00  0.00     0.159 HD
ATOM     18  H   UNL     1       8.192   0.405   9.365  1.00  0.00     0.159 HD
ENDBRANCH   4  11
TORSDOF 3
ENDMDL
MODEL 2
REMARK VINA RESULT:    -4.914     13.776     14.731
REMARK INTER + INTRA:          -5.773
REMARK INTER:                  -5.628
REMARK INTRA:                  -0.144
REMARK UNBOUND:                -0.141
REMARK SMILES [H]/N=C(/N)Nc1ccc(C(=O)O)cc1
REMARK SMILES IDX 9 1 8 2 7 3 6 4 14 5 13 6 10 7 11 8 12 9 5 11 3 12 2 13 4 14
REMARK SMILES IDX 1 16
REMARK H PARENT 12 10 5 15 4 17 4 18
ROOT
ATOM      1  C   UNL     1       5.840   8.277  -2.405  1.00  0.00     0.060 A 
ATOM      2  C   UNL     1       5.513   7.718  -3.645  1.00  0.00     0.018 A 
ATOM      3  C   UNL     1       6.392   6.825  -4.276  1.00  0.00     0.027 A 
ATOM      4  C   UNL     1       7.610   6.474  -3.685  1.00  0.00     0.041 A 
ATOM      5  C   UNL     1       7.918   7.040  -2.434  1.00  0.00     0.027 A 
ATOM      6  C   UNL     1       7.043   7.923  -1.791  1.00  0.00     0.018 A 
ENDROOT
BRANCH   1   7
ATOM      7  C   UNL     1       4.859   9.181  -1.752  1.00  0.00     0.335 C 
ATOM      8  O   UNL     1       3.790   8.793  -1.318  1.00  0.00    -0.246 OA
BRANCH   7   9
ATOM      9  O   UNL     1       5.250  10.472  -1.711  1.00  0.00    -0.478 OA
ATOM     10  H   UNL     1       5.364  10.844  -0.817  1.00  0.00     0.297 HD
ENDBRANCH   7   9
ENDBRANCH   1   7
BRANCH   4  11
ATOM     11  N   UNL     1       8.536   5.586  -4.251  1.00  0.00    -0.327 N 
ATOM     12  C   UNL     1       9.230   5.629  -5.416  1.00  0.00     0.190 C 
ATOM     13  N   UNL     1       9.373   6.568  -6.276  1.00  0.00    -0.269 NA
ATOM     14  N   UNL     1       9.909   4.479  -5.637  1.00  0.00    -0.370 N 
ATOM     15  H   UNL     1       8.876   4.876  -3.616  1.00  0.00     0.170 HD
ATOM     16  H   UNL     1       8.879   7.401  -5.960  1.00  0.00     0.191 HD
ATOM     17  H   UNL     1       9.322   3.654  -5.610  1.00  0.00     0.159 HD
ATOM     18  H   UNL     1      10.362   4.545  -6.546  1.00  0.00     0.159 HD
ENDBRANCH   4  11
TORSDOF 3
ENDMDL
MODEL 3
REMARK VINA RESULT:    -4.659      4.411      5.742
REMARK INTER + INTRA:          -5.481
REMARK INTER:                  -5.349
REMARK INTRA:                  -0.133
REMARK UNBOUND:                -0.141
REMARK SMILES [H]/N=C(/N)Nc1ccc(C(=O)O)cc1
REMARK SMILES IDX 9 1 8 2 7 3 6 4 14 5 13 6 10 7 11 8 12 9 5 11 3 12 2 13 4 14
REMARK SMILES IDX 1 16
REMARK H PARENT 12 10 5 15 4 17 4 18
ROOT
ATOM      1  C   UNL     1       4.410   1.119  10.026  1.00  0.00     0.060 A 
ATOM      2  C   UNL     1       3.954   2.442  10.044  1.00  0.00     0.018 A 
ATOM      3  C   UNL     1       2.631   2.732  10.408  1.00  0.00     0.027 A 
ATOM      4  C   UNL     1       1.739   1.713  10.759  1.00  0.00     0.041 A 
ATOM      5  C   UNL     1       2.218   0.390  10.743  1.00  0.00     0.027 A 
ATOM      6  C   UNL     1       3.539   0.091  10.392  1.00  0.00     0.018 A 
ENDROOT
BRANCH   1   7
ATOM      7  C   UNL     1       5.831   0.862   9.679  1.00  0.00     0.335 C 
ATOM      8  O   UNL     1       6.433  -0.127  10.051  1.00  0.00    -0.246 OA
BRANCH   7   9
ATOM      9  O   UNL     1       6.397   1.840   8.940  1.00  0.00    -0.478 OA
ATOM     10  H   UNL     1       6.353   2.733   9.328  1.00  0.00     0.297 HD
ENDBRANCH   7   9
ENDBRANCH   1   7
BRANCH   4  11
ATOM     11  N   UNL     1       0.406   1.925  11.138  1.00  0.00    -0.327 N 
ATOM     12  C   UNL     1      -0.615   2.571  10.521  1.00  0.00     0.190 C 
ATOM     13  N   UNL     1      -0.717   3.044   9.334  1.00  0.00    -0.269 NA
ATOM     14  N   UNL     1      -1.705   2.663  11.319  1.00  0.00    -0.370 N 
ATOM     15  H   UNL     1       0.100   1.365  11.923  1.00  0.00     0.170 HD
ATOM     16  H   UNL     1       0.135   2.845   8.811  1.00  0.00     0.191 HD
ATOM     17  H   UNL     1      -1.512   3.091  12.215  1.00  0.00     0.159 HD
ATOM     18  H   UNL     1      -2.415   3.203  10.829  1.00  0.00     0.159 HD
ENDBRANCH   4  11
TORSDOF 3
ENDMDL
MODEL 4
REMARK VINA RESULT:    -4.533      4.739      6.281
REMARK INTER + INTRA:          -5.337
REMARK INTER:                  -5.371
REMARK INTRA:                   0.034
REMARK UNBOUND:                -0.141
REMARK SMILES [H]/N=C(/N)Nc1ccc(C(=O)O)cc1
REMARK SMILES IDX 9 1 8 2 7 3 6 4 14 5 13 6 10 7 11 8 12 9 5 11 3 12 2 13 4 14
REMARK SMILES IDX 1 16
REMARK H PARENT 12 10 5 15 4 17 4 18
ROOT
ATOM      1  C   UNL     1       2.215   2.130   9.470  1.00  0.00     0.060 A 
ATOM      2  C   UNL     1       1.066   2.420   8.726  1.00  0.00     0.018 A 
ATOM      3  C   UNL     1      -0.183   2.515   9.356  1.00  0.00     0.027 A 
ATOM      4  C   UNL     1      -0.312   2.322  10.735  1.00  0.00     0.041 A 
ATOM      5  C   UNL     1       0.855   2.039  11.468  1.00  0.00     0.027 A 
ATOM      6  C   UNL     1       2.108   1.954  10.851  1.00  0.00     0.018 A 
ENDROOT
BRANCH   1   7
ATOM      7  C   UNL     1       3.523   2.085   8.768  1.00  0.00     0.335 C 
ATOM      8  O   UNL     1       4.563   1.797   9.329  1.00  0.00    -0.246 OA
BRANCH   7   9
ATOM      9  O   UNL     1       3.453   2.421   7.463  1.00  0.00    -0.478 OA
ATOM     10  H   UNL     1       3.240   3.355   7.284  1.00  0.00     0.297 HD
ENDBRANCH   7   9
ENDBRANCH   1   7
BRANCH   4  11
ATOM     11  N   UNL     1      -1.524   2.406  11.436  1.00  0.00    -0.327 N 
ATOM     12  C   UNL     1      -2.628   3.169  11.238  1.00  0.00     0.190 C 
ATOM     13  N   UNL     1      -2.964   3.927  10.260  1.00  0.00    -0.269 NA
ATOM     14  N   UNL     1      -3.518   3.035  12.250  1.00  0.00    -0.370 N 
ATOM     15  H   UNL     1      -1.676   1.659  12.100  1.00  0.00     0.170 HD
ATOM     16  H   UNL     1      -2.252   3.883   9.532  1.00  0.00     0.191 HD
ATOM     17  H   UNL     1      -3.121   3.225  13.161  1.00  0.00     0.159 HD
ATOM     18  H   UNL     1      -4.295   3.669  12.078  1.00  0.00     0.159 HD
ENDBRANCH   4  11
TORSDOF 3
ENDMDL
MODEL 5
REMARK VINA RESULT:    -4.499      2.774      3.892
REMARK INTER + INTRA:          -5.297
REMARK INTER:                  -5.135
REMARK INTRA:                  -0.162
REMARK UNBOUND:                -0.141
REMARK SMILES [H]/N=C(/N)Nc1ccc(C(=O)O)cc1
REMARK SMILES IDX 9 1 8 2 7 3 6 4 14 5 13 6 10 7 11 8 12 9 5 11 3 12 2 13 4 14
REMARK SMILES IDX 1 16
REMARK H PARENT 12 10 5 15 4 17 4 18
ROOT
ATOM      1  C   UNL     1       4.445   1.217   9.335  1.00  0.00     0.060 A 
ATOM      2  C   UNL     1       5.827   1.411   9.431  1.00  0.00     0.018 A 
ATOM      3  C   UNL     1       6.685   0.318   9.624  1.00  0.00     0.027 A 
ATOM      4  C   UNL     1       6.185  -0.983   9.726  1.00  0.00     0.041 A 
ATOM      5  C   UNL     1       4.793  -1.160   9.619  1.00  0.00     0.027 A 
ATOM      6  C   UNL     1       3.929  -0.078   9.414  1.00  0.00     0.018 A 
ENDROOT
BRANCH   1   7
ATOM      7  C   UNL     1       3.578   2.396   9.083  1.00  0.00     0.335 C 
ATOM      8  O   UNL     1       3.024   3.011   9.975  1.00  0.00    -0.246 OA
BRANCH   7   9
ATOM      9  O   UNL     1       3.440   2.703   7.776  1.00  0.00    -0.478 OA
ATOM     10  H   UNL     1       2.561   3.034   7.517  1.00  0.00     0.297 HD
ENDBRANCH   7   9
ENDBRANCH   1   7
BRANCH   4  11
ATOM     11  N   UNL     1       6.979  -2.123   9.914  1.00  0.00    -0.327 N 
ATOM     12  C   UNL     1       7.597  -2.620  11.015  1.00  0.00     0.190 C 
ATOM     13  N   UNL     1       7.511  -2.289  12.250  1.00  0.00    -0.269 NA
ATOM     14  N   UNL     1       8.390  -3.675  10.711  1.00  0.00    -0.370 N 
ATOM     15  H   UNL     1       6.956  -2.781   9.145  1.00  0.00     0.170 HD
ATOM     16  H   UNL     1       6.828  -1.540  12.357  1.00  0.00     0.191 HD
ATOM     17  H   UNL     1       9.071  -3.471   9.991  1.00  0.00     0.159 HD
ATOM     18  H   UNL     1       8.869  -3.969  11.560  1.00  0.00     0.159 HD
ENDBRANCH   4  11
TORSDOF 3
ENDMDL
MODEL 6
REMARK VINA RESULT:    -4.497     13.151     13.955
REMARK INTER + INTRA:          -5.295
REMARK INTER:                  -5.125
REMARK INTRA:                  -0.170
REMARK UNBOUND:                -0.141
REMARK SMILES [H]/N=C(/N)Nc1ccc(C(=O)O)cc1
REMARK SMILES IDX 9 1 8 2 7 3 6 4 14 5 13 6 10 7 11 8 12 9 5 11 3 12 2 13 4 14
REMARK SMILES IDX 1 16
REMARK H PARENT 12 10 5 15 4 17 4 18
ROOT
ATOM      1  C   UNL     1       4.894   8.229  -1.830  1.00  0.00     0.060 A 
ATOM      2  C   UNL     1       6.226   8.352  -1.424  1.00  0.00     0.018 A 
ATOM      3  C   UNL     1       7.220   7.539  -1.988  1.00  0.00     0.027 A 
ATOM      4  C   UNL     1       6.905   6.589  -2.965  1.00  0.00     0.041 A 
ATOM      5  C   UNL     1       5.561   6.485  -3.368  1.00  0.00     0.027 A 
ATOM      6  C   UNL     1       4.564   7.300  -2.819  1.00  0.00     0.018 A 
ENDROOT
BRANCH   1   7
ATOM      7  C   UNL     1       3.883   9.142  -1.240  1.00  0.00     0.335 C 
ATOM      8  O   UNL     1       2.791   8.762  -0.860  1.00  0.00    -0.246 OA
BRANCH   7   9
ATOM      9  O   UNL     1       4.277  10.433  -1.190  1.00  0.00    -0.478 OA
ATOM     10  H   UNL     1       3.629  11.078  -1.528  1.00  0.00     0.297 HD
ENDBRANCH   7   9
ENDBRANCH   1   7
BRANCH   4  11
ATOM     11  N   UNL     1       7.842   5.746  -3.579  1.00  0.00    -0.327 N 
ATOM     12  C   UNL     1       8.417   5.779  -4.807  1.00  0.00     0.190 C 
ATOM     13  N   UNL     1       8.401   6.679  -5.720  1.00  0.00    -0.269 NA
ATOM     14  N   UNL     1       9.163   4.674  -5.042  1.00  0.00    -0.370 N 
ATOM     15  H   UNL     1       8.297   5.098  -2.949  1.00  0.00     0.170 HD
ATOM     16  H   UNL     1       7.874   7.489  -5.394  1.00  0.00     0.191 HD
ATOM     17  H   UNL     1       8.650   3.810  -4.920  1.00  0.00     0.159 HD
ATOM     18  H   UNL     1       9.521   4.726  -5.993  1.00  0.00     0.159 HD
ENDBRANCH   4  11
TORSDOF 3
ENDMDL
MODEL 7
REMARK VINA RESULT:    -4.427     12.878     13.532
REMARK INTER + INTRA:          -5.215
REMARK INTER:                  -5.094
REMARK INTRA:                  -0.121
REMARK UNBOUND:                -0.141
REMARK SMILES [H]/N=C(/N)Nc1ccc(C(=O)O)cc1
REMARK SMILES IDX 9 1 8 2 7 3 6 4 14 5 13 6 10 7 11 8 12 9 5 11 3 12 2 13 4 14
REMARK SMILES IDX 1 16
REMARK H PARENT 12 10 5 15 4 17 4 18
ROOT
ATOM      1  C   UNL     1       2.700  11.467  -0.327  1.00  0.00     0.060 A 
ATOM      2  C   UNL     1       3.967  12.042  -0.475  1.00  0.00     0.018 A 
ATOM      3  C   UNL     1       4.997  11.336  -1.114  1.00  0.00     0.027 A 
ATOM      4  C   UNL     1       4.785  10.047  -1.614  1.00  0.00     0.041 A 
ATOM      5  C   UNL     1       3.503   9.488  -1.463  1.00  0.00     0.027 A 
ATOM      6  C   UNL     1       2.465  10.189  -0.838  1.00  0.00     0.018 A 
ENDROOT
BRANCH   1   7
ATOM      7  C   UNL     1       1.627  12.268   0.314  1.00  0.00     0.335 C 
ATOM      8  O   UNL     1       1.782  13.425   0.657  1.00  0.00    -0.246 OA
BRANCH   7   9
ATOM      9  O   UNL     1       0.477  11.587   0.504  1.00  0.00    -0.478 OA
ATOM     10  H   UNL     1       0.500  10.650   0.235  1.00  0.00     0.297 HD
ENDBRANCH   7   9
ENDBRANCH   1   7
BRANCH   4  11
ATOM     11  N   UNL     1       5.762   9.283  -2.268  1.00  0.00    -0.327 N 
ATOM     12  C   UNL     1       6.403   8.142  -1.910  1.00  0.00     0.190 C 
ATOM     13  N   UNL     1       6.195   7.328  -0.941  1.00  0.00    -0.269 NA
ATOM     14  N   UNL     1       7.389   7.825  -2.782  1.00  0.00    -0.370 N 
ATOM     15  H   UNL     1       5.898   9.521  -3.242  1.00  0.00     0.170 HD
ATOM     16  H   UNL     1       5.384   7.633  -0.405  1.00  0.00     0.191 HD
ATOM     17  H   UNL     1       8.057   8.572  -2.921  1.00  0.00     0.159 HD
ATOM     18  H   UNL     1       7.869   6.997  -2.436  1.00  0.00     0.159 HD
ENDBRANCH   4  11
TORSDOF 3
ENDMDL
MODEL 8
REMARK VINA RESULT:    -4.420      1.526      1.959
REMARK INTER + INTRA:          -5.207
REMARK INTER:                  -5.043
REMARK INTRA:                  -0.165
REMARK UNBOUND:                -0.141
REMARK SMILES [H]/N=C(/N)Nc1ccc(C(=O)O)cc1
REMARK SMILES IDX 9 1 8 2 7 3 6 4 14 5 13 6 10 7 11 8 12 9 5 11 3 12 2 13 4 14
REMARK SMILES IDX 1 16
REMARK H PARENT 12 10 5 15 4 17 4 18
ROOT
ATOM      1  C   UNL     1      -0.250   2.316  10.490  1.00  0.00     0.060 A 
ATOM      2  C   UNL     1       0.657   1.962  11.495  1.00  0.00     0.018 A 
ATOM      3  C   UNL     1       2.037   1.988  11.247  1.00  0.00     0.027 A 
ATOM      4  C   UNL     1       2.539   2.364   9.997  1.00  0.00     0.041 A 
ATOM      5  C   UNL     1       1.612   2.724   9.001  1.00  0.00     0.027 A 
ATOM      6  C   UNL     1       0.234   2.713   9.242  1.00  0.00     0.018 A 
ENDROOT
BRANCH   1   7
ATOM      7  C   UNL     1      -1.700   2.320  10.810  1.00  0.00     0.335 C 
ATOM      8  O   UNL     1      -2.328   1.304  11.042  1.00  0.00    -0.246 OA
BRANCH   7   9
ATOM      9  O   UNL     1      -2.259   3.548  10.794  1.00  0.00    -0.478 OA
ATOM     10  H   UNL     1      -2.589   3.843   9.925  1.00  0.00     0.297 HD
ENDBRANCH   7   9
ENDBRANCH   1   7
BRANCH   4  11
ATOM     11  N   UNL     1       3.902   2.419   9.676  1.00  0.00    -0.327 N 
ATOM     12  C   UNL     1       4.751   1.481   9.184  1.00  0.00     0.190 C 
ATOM     13  N   UNL     1       4.530   0.310   8.712  1.00  0.00    -0.269 NA
ATOM     14  N   UNL     1       6.030   1.924   9.164  1.00  0.00    -0.370 N 
ATOM     15  H   UNL     1       4.288   3.353   9.645  1.00  0.00     0.170 HD
ATOM     16  H   UNL     1       3.528   0.125   8.710  1.00  0.00     0.191 HD
ATOM     17  H   UNL     1       6.356   2.252  10.065  1.00  0.00     0.159 HD
ATOM     18  H   UNL     1       6.627   1.165   8.842  1.00  0.00     0.159 HD
ENDBRANCH   4  11
TORSDOF 3
ENDMDL
MODEL 9
REMARK VINA RESULT:    -4.371      2.317      3.355
REMARK INTER + INTRA:          -5.151
REMARK INTER:                  -5.017
REMARK INTRA:                  -0.134
REMARK UNBOUND:                -0.141
REMARK SMILES [H]/N=C(/N)Nc1ccc(C(=O)O)cc1
REMARK SMILES IDX 9 1 8 2 7 3 6 4 14 5 13 6 10 7 11 8 12 9 5 11 3 12 2 13 4 14
REMARK SMILES IDX 1 16
REMARK H PARENT 12 10 5 15 4 17 4 18
ROOT
ATOM      1  C   UNL     1       3.784   1.329  10.066  1.00  0.00     0.060 A 
ATOM      2  C   UNL     1       3.738  -0.045   9.811  1.00  0.00     0.018 A 
ATOM      3  C   UNL     1       4.859  -0.710   9.293  1.00  0.00     0.027 A 
ATOM      4  C   UNL     1       6.044  -0.019   9.018  1.00  0.00     0.041 A 
ATOM      5  C   UNL     1       6.075   1.361   9.288  1.00  0.00     0.027 A 
ATOM      6  C   UNL     1       4.965   2.031   9.817  1.00  0.00     0.018 A 
ENDROOT
BRANCH   1   7
ATOM      7  C   UNL     1       2.590   1.983  10.659  1.00  0.00     0.335 C 
ATOM      8  O   UNL     1       2.255   3.120  10.385  1.00  0.00    -0.246 OA
BRANCH   7   9
ATOM      9  O   UNL     1       1.929   1.210  11.546  1.00  0.00    -0.478 OA
ATOM     10  H   UNL     1       1.841   1.587  12.441  1.00  0.00     0.297 HD
ENDBRANCH   7   9
ENDBRANCH   1   7
BRANCH   4  11
ATOM     11  N   UNL     1       7.205  -0.615   8.506  1.00  0.00    -0.327 N 
ATOM     12  C   UNL     1       7.421  -1.356   7.390  1.00  0.00     0.190 C 
ATOM     13  N   UNL     1       6.666  -1.602   6.384  1.00  0.00    -0.269 NA
ATOM     14  N   UNL     1       8.677  -1.859   7.357  1.00  0.00    -0.370 N 
ATOM     15  H   UNL     1       8.063  -0.306   8.944  1.00  0.00     0.170 HD
ATOM     16  H   UNL     1       5.781  -1.107   6.490  1.00  0.00     0.191 HD
ATOM     17  H   UNL     1       8.918  -2.393   8.183  1.00  0.00     0.159 HD
ATOM     18  H   UNL     1       8.764  -2.449   6.533  1.00  0.00     0.159 HD
ENDBRANCH   4  11
TORSDOF 3
ENDMDL
