MODEL 1
REMARK VINA RESULT:    -4.904      0.000      0.000
REMARK INTER + INTRA:          -5.767
REMARK INTER:                  -5.621
REMARK INTRA:                  -0.147
REMARK UNBOUND:                -0.147
REMARK SMILES [H]/N=C(/N)Nc1ccc(C(=O)O)cc1
REMARK SMILES IDX 9 1 8 2 7 3 6 4 14 5 13 6 10 7 11 8 12 9 5 11 3 12 2 13 4 14
REMARK SMILES IDX 1 16
REMARK H PARENT 12 10 5 15 4 17 4 18
ROOT
ATOM      1  C   UNL     1       5.856   8.296  -2.352  1.00  0.00     0.060 A 
ATOM      2  C   UNL     1       5.514   7.720  -3.580  1.00  0.00     0.018 A 
ATOM      3  C   UNL     1       6.387   6.822  -4.211  1.00  0.00     0.027 A 
ATOM      4  C   UNL     1       7.614   6.483  -3.633  1.00  0.00     0.041 A 
ATOM      5  C   UNL     1       7.939   7.065  -2.394  1.00  0.00     0.027 A 
ATOM      6  C   UNL     1       7.069   7.953  -1.750  1.00  0.00     0.018 A 
ENDROOT
BRANCH   1   7
ATOM      7  C   UNL     1       4.882   9.205  -1.696  1.00  0.00     0.335 C 
ATOM      8  O   UNL     1       3.810   8.823  -1.264  1.00  0.00    -0.246 OA
BRANCH   7   9
ATOM      9  O   UNL     1       5.283  10.493  -1.651  1.00  0.00    -0.478 OA
ATOM     10  H   UNL     1       5.019  11.038  -2.416  1.00  0.00     0.297 HD
ENDBRANCH   7   9
ENDBRANCH   1   7
BRANCH   4  11
ATOM     11  N   UNL     1       8.535   5.590  -4.201  1.00  0.00    -0.327 N 
ATOM     12  C   UNL     1       9.220   5.625  -5.372  1.00  0.00     0.190 C 
ATOM     13  N   UNL     1       9.358   6.559  -6.239  1.00  0.00    -0.269 NA
ATOM     14  N   UNL     1       9.897   4.473  -5.591  1.00  0.00    -0.370 N 
ATOM     15  H   UNL     1       8.880   4.883  -3.565  1.00  0.00     0.170 HD
ATOM     16  H   UNL     1       8.867   7.395  -5.923  1.00  0.00     0.191 HD
ATOM     17  H   UNL     1       9.310   3.650  -5.554  1.00  0.00     0.159 HD
ATOM     18  H   UNL     1      10.343   4.534  -6.504  1.00  0.00     0.159 HD
ENDBRANCH   4  11
TORSDOF 3
ENDMDL
MODEL 2
REMARK VINA RESULT:    -4.769      0.689      1.501
REMARK INTER + INTRA:          -5.613
REMARK INTER:                  -5.444
REMARK INTRA:                  -0.169
REMARK UNBOUND:                -0.147
REMARK SMILES [H]/N=C(/N)Nc1ccc(C(=O)O)cc1
REMARK SMILES IDX 9 1 8 2 7 3 6 4 14 5 13 6 10 7 11 8 12 9 5 11 3 12 2 13 4 14
REMARK SMILES IDX 1 16
REMARK H PARENT 12 10 5 15 4 17 4 18
ROOT
ATOM      1  C   UNL     1       5.600   8.641  -2.204  1.00  0.00     0.060 A 
ATOM      2  C   UNL     1       6.809   8.224  -1.636  1.00  0.00     0.018 A 
ATOM      3  C   UNL     1       7.530   7.162  -2.201  1.00  0.00     0.027 A 
ATOM      4  C   UNL     1       7.062   6.495  -3.337  1.00  0.00     0.041 A 
ATOM      5  C   UNL     1       5.848   6.933  -3.899  1.00  0.00     0.027 A 
ATOM      6  C   UNL     1       5.127   8.000  -3.351  1.00  0.00     0.018 A 
ENDROOT
BRANCH   1   7
ATOM      7  C   UNL     1       4.894   9.800  -1.601  1.00  0.00     0.335 C 
ATOM      8  O   UNL     1       3.759   9.730  -1.170  1.00  0.00    -0.246 OA
BRANCH   7   9
ATOM      9  O   UNL     1       5.618  10.939  -1.602  1.00  0.00    -0.478 OA
ATOM     10  H   UNL     1       5.126  11.744  -1.355  1.00  0.00     0.297 HD
ENDBRANCH   7   9
ENDBRANCH   1   7
BRANCH   4  11
ATOM     11  N   UNL     1       7.728   5.430  -3.960  1.00  0.00    -0.327 N 
ATOM     12  C   UNL     1       8.543   5.388  -5.044  1.00  0.00     0.190 C 
ATOM     13  N   UNL     1       9.082   6.327  -5.729  1.00  0.00    -0.269 NA
ATOM     14  N   UNL     1       8.851   4.115  -5.389  1.00  0.00    -0.370 N 
ATOM     15  H   UNL     1       7.744   4.574  -3.422  1.00  0.00     0.170 HD
ATOM     16  H   UNL     1       8.838   7.230  -5.325  1.00  0.00     0.191 HD
ATOM     17  H   UNL     1       8.037   3.533  -5.541  1.00  0.00     0.159 HD
ATOM     18  H   UNL     1       9.415   4.142  -6.237  1.00  0.00     0.159 HD
ENDBRANCH   4  11
TORSDOF 3
ENDMDL
MODEL 3
REMARK VINA RESULT:    -4.553      4.367      5.741
REMARK INTER + INTRA:          -5.365
REMARK INTER:                  -5.191
REMARK INTRA:                  -0.174
REMARK UNBOUND:                -0.147
REMARK SMILES [H]/N=C(/N)Nc1ccc(C(=O)O)cc1
REMARK SMILES IDX 9 1 8 2 7 3 6 4 14 5 13 6 10 7 11 8 12 9 5 11 3 12 2 13 4 14
REMARK SMILES IDX 1 16
REMARK H PARENT 12 10 5 15 4 17 4 18
ROOT
ATOM      1  C   UNL     1       7.162   6.653  -3.804  1.00  0.00     0.060 A 
ATOM      2  C   UNL     1       7.611   7.077  -2.549  1.00  0.00     0.018 A 
ATOM      3  C   UNL     1       6.845   7.968  -1.784  1.00  0.00     0.027 A 
ATOM      4  C   UNL     1       5.620   8.453  -2.254  1.00  0.00     0.041 A 
ATOM      5  C   UNL     1       5.180   8.009  -3.515  1.00  0.00     0.027 A 
ATOM      6  C   UNL     1       5.932   7.111  -4.280  1.00  0.00     0.018 A 
ENDROOT
BRANCH   1   7
ATOM      7  C   UNL     1       7.983   5.673  -4.559  1.00  0.00     0.335 C 
ATOM      8  O   UNL     1       7.505   4.873  -5.341  1.00  0.00    -0.246 OA
BRANCH   7   9
ATOM      9  O   UNL     1       9.302   5.734  -4.277  1.00  0.00    -0.478 OA
ATOM     10  H   UNL     1       9.896   5.474  -5.005  1.00  0.00     0.297 HD
ENDBRANCH   7   9
ENDBRANCH   1   7
BRANCH   4  11
ATOM     11  N   UNL     1       4.797   9.339  -1.545  1.00  0.00    -0.327 N 
ATOM     12  C   UNL     1       4.780  10.695  -1.477  1.00  0.00     0.190 C 
ATOM     13  N   UNL     1       5.404  11.580  -2.162  1.00  0.00    -0.269 NA
ATOM     14  N   UNL     1       3.902  11.138  -0.546  1.00  0.00    -0.370 N 
ATOM     15  H   UNL     1       3.969   8.915  -1.147  1.00  0.00     0.170 HD
ATOM     16  H   UNL     1       5.970  11.124  -2.877  1.00  0.00     0.191 HD
ATOM     17  H   UNL     1       4.058  10.744   0.373  1.00  0.00     0.159 HD
ATOM     18  H   UNL     1       3.973  12.153  -0.499  1.00  0.00     0.159 HD
ENDBRANCH   4  11
TORSDOF 3
ENDMDL
MODEL 4
REMARK VINA RESULT:    -4.533      3.289      4.808
REMARK INTER + INTRA:          -5.342
REMARK INTER:                  -5.338
REMARK INTRA:                  -0.004
REMARK UNBOUND:                -0.147
REMARK SMILES [H]/N=C(/N)Nc1ccc(C(=O)O)cc1
REMARK SMILES IDX 9 1 8 2 7 3 6 4 14 5 13 6 10 7 11 8 12 9 5 11 3 12 2 13 4 14
REMARK SMILES IDX 1 16
REMARK H PARENT 12 10 5 15 4 17 4 18
ROOT
ATOM      1  C   UNL     1       2.564  10.877  -0.757  1.00  0.00     0.060 A 
ATOM      2  C   UNL     1       2.553   9.514  -1.072  1.00  0.00     0.018 A 
ATOM      3  C   UNL     1       3.719   8.881  -1.528  1.00  0.00     0.027 A 
ATOM      4  C   UNL     1       4.913   9.592  -1.679  1.00  0.00     0.041 A 
ATOM      5  C   UNL     1       4.907  10.961  -1.350  1.00  0.00     0.027 A 
ATOM      6  C   UNL     1       3.753  11.599  -0.883  1.00  0.00     0.018 A 
ENDROOT
BRANCH   1   7
ATOM      7  C   UNL     1       1.319  11.495  -0.233  1.00  0.00     0.335 C 
ATOM      8  O   UNL     1       0.536  12.102  -0.938  1.00  0.00    -0.246 OA
BRANCH   7   9
ATOM      9  O   UNL     1       1.155  11.345   1.099  1.00  0.00    -0.478 OA
ATOM     10  H   UNL     1       1.975  11.379   1.625  1.00  0.00     0.297 HD
ENDBRANCH   7   9
ENDBRANCH   1   7
BRANCH   4  11
ATOM     11  N   UNL     1       6.118   9.029  -2.124  1.00  0.00    -0.327 N 
ATOM     12  C   UNL     1       6.717   7.845  -1.842  1.00  0.00     0.190 C 
ATOM     13  N   UNL     1       6.290   6.814  -1.211  1.00  0.00    -0.269 NA
ATOM     14  N   UNL     1       7.956   7.769  -2.382  1.00  0.00    -0.370 N 
ATOM     15  H   UNL     1       6.534   9.502  -2.915  1.00  0.00     0.170 HD
ATOM     16  H   UNL     1       5.324   6.965  -0.922  1.00  0.00     0.191 HD
ATOM     17  H   UNL     1       8.558   8.538  -2.116  1.00  0.00     0.159 HD
ATOM     18  H   UNL     1       8.378   6.889  -2.092  1.00  0.00     0.159 HD
ENDBRANCH   4  11
TORSDOF 3
ENDMDL
MODEL 5
REMARK VINA RESULT:    -4.469     13.494     14.440
REMARK INTER + INTRA:          -5.269
REMARK INTER:                  -5.099
REMARK INTRA:                  -0.170
REMARK UNBOUND:                -0.147
REMARK SMILES [H]/N=C(/N)Nc1ccc(C(=O)O)cc1
REMARK SMILES IDX 9 1 8 2 7 3 6 4 14 5 13 6 10 7 11 8 12 9 5 11 3 12 2 13 4 14
REMARK SMILES IDX 1 16
REMARK H PARENT 12 10 5 15 4 17 4 18
ROOT
ATOM      1  C   UNL     1       0.645   2.645   8.759  1.00  0.00     0.060 A 
ATOM      2  C   UNL     1       1.353   2.807   9.955  1.00  0.00     0.018 A 
ATOM      3  C   UNL     1       2.735   2.567  10.000  1.00  0.00     0.027 A 
ATOM      4  C   UNL     1       3.434   2.162   8.859  1.00  0.00     0.041 A 
ATOM      5  C   UNL     1       2.707   2.012   7.663  1.00  0.00     0.027 A 
ATOM      6  C   UNL     1       1.331   2.260   7.605  1.00  0.00     0.018 A 
ENDROOT
BRANCH   1   7
ATOM      7  C   UNL     1      -0.807   2.955   8.746  1.00  0.00     0.335 C 
ATOM      8  O   UNL     1      -1.444   3.093   7.719  1.00  0.00    -0.246 OA
BRANCH   7   9
ATOM      9  O   UNL     1      -1.345   3.095   9.976  1.00  0.00    -0.478 OA
ATOM     10  H   UNL     1      -1.784   2.300  10.332  1.00  0.00     0.297 HD
ENDBRANCH   7   9
ENDBRANCH   1   7
BRANCH   4  11
ATOM     11  N   UNL     1       4.813   1.909   8.825  1.00  0.00    -0.327 N 
ATOM     12  C   UNL     1       5.565   0.933   9.394  1.00  0.00     0.190 C 
ATOM     13  N   UNL     1       5.227  -0.144  10.000  1.00  0.00    -0.269 NA
ATOM     14  N   UNL     1       6.889   1.156   9.221  1.00  0.00    -0.370 N 
ATOM     15  H   UNL     1       5.319   2.439   8.127  1.00  0.00     0.170 HD
ATOM     16  H   UNL     1       4.212  -0.236   9.996  1.00  0.00     0.191 HD
ATOM     17  H   UNL     1       7.189   2.065   9.550  1.00  0.00     0.159 HD
ATOM     18  H   UNL     1       7.402   0.428   9.714  1.00  0.00     0.159 HD
ENDBRANCH   4  11
TORSDOF 3
ENDMDL
MODEL 6
REMARK VINA RESULT:    -4.376      4.359      5.761
REMARK INTER + INTRA:          -5.162
REMARK INTER:                  -5.014
REMARK INTRA:                  -0.149
REMARK UNBOUND:                -0.147
REMARK SMILES [H]/N=C(/N)Nc1ccc(C(=O)O)cc1
REMARK SMILES IDX 9 1 8 2 7 3 6 4 14 5 13 6 10 7 11 8 12 9 5 11 3 12 2 13 4 14
REMARK SMILES IDX 1 16
REMARK H PARENT 12 10 5 15 4 17 4 18
ROOT
ATOM      1  C   UNL     1       7.193   6.479  -3.743  1.00  0.00     0.060 A 
ATOM      2  C   UNL     1       6.042   7.020  -4.324  1.00  0.00     0.018 A 
ATOM      3  C   UNL     1       5.320   8.027  -3.665  1.00  0.00     0.027 A 
ATOM      4  C   UNL     1       5.730   8.510  -2.419  1.00  0.00     0.041 A 
ATOM      5  C   UNL     1       6.895   7.959  -1.853  1.00  0.00     0.027 A 
ATOM      6  C   UNL     1       7.629   6.964  -2.508  1.00  0.00     0.018 A 
ENDROOT
BRANCH   1   7
ATOM      7  C   UNL     1       7.952   5.449  -4.497  1.00  0.00     0.335 C 
ATOM      8  O   UNL     1       9.164   5.469  -4.605  1.00  0.00    -0.246 OA
BRANCH   7   9
ATOM      9  O   UNL     1       7.172   4.509  -5.071  1.00  0.00    -0.478 OA
ATOM     10  H   UNL     1       7.567   4.053  -5.838  1.00  0.00     0.297 HD
ENDBRANCH   7   9
ENDBRANCH   1   7
BRANCH   4  11
ATOM     11  N   UNL     1       5.065   9.516  -1.703  1.00  0.00    -0.327 N 
ATOM     12  C   UNL     1       3.803   9.586  -1.207  1.00  0.00     0.190 C 
ATOM     13  N   UNL     1       2.890   8.693  -1.101  1.00  0.00    -0.269 NA
ATOM     14  N   UNL     1       3.529  10.814  -0.707  1.00  0.00    -0.370 N 
ATOM     15  H   UNL     1       5.668  10.246  -1.347  1.00  0.00     0.170 HD
ATOM     16  H   UNL     1       3.244   7.799  -1.439  1.00  0.00     0.191 HD
ATOM     17  H   UNL     1       3.685  11.562  -1.371  1.00  0.00     0.159 HD
ATOM     18  H   UNL     1       2.557  10.825  -0.403  1.00  0.00     0.159 HD
ENDBRANCH   4  11
TORSDOF 3
ENDMDL
MODEL 7
REMARK VINA RESULT:    -4.374      2.539      3.151
REMARK INTER + INTRA:          -5.160
REMARK INTER:                  -4.985
REMARK INTRA:                  -0.175
REMARK UNBOUND:                -0.147
REMARK SMILES [H]/N=C(/N)Nc1ccc(C(=O)O)cc1
REMARK SMILES IDX 9 1 8 2 7 3 6 4 14 5 13 6 10 7 11 8 12 9 5 11 3 12 2 13 4 14
REMARK SMILES IDX 1 16
REMARK H PARENT 12 10 5 15 4 17 4 18
ROOT
ATOM      1  C   UNL     1       6.929   6.662  -2.738  1.00  0.00     0.060 A 
ATOM      2  C   UNL     1       5.720   6.002  -2.986  1.00  0.00     0.018 A 
ATOM      3  C   UNL     1       5.578   5.181  -4.113  1.00  0.00     0.027 A 
ATOM      4  C   UNL     1       6.633   5.003  -5.014  1.00  0.00     0.041 A 
ATOM      5  C   UNL     1       7.843   5.668  -4.745  1.00  0.00     0.027 A 
ATOM      6  C   UNL     1       7.999   6.480  -3.616  1.00  0.00     0.018 A 
ENDROOT
BRANCH   1   7
ATOM      7  C   UNL     1       7.050   7.485  -1.507  1.00  0.00     0.335 C 
ATOM      8  O   UNL     1       8.024   8.172  -1.266  1.00  0.00    -0.246 OA
BRANCH   7   9
ATOM      9  O   UNL     1       5.995   7.376  -0.673  1.00  0.00    -0.478 OA
ATOM     10  H   UNL     1       5.892   8.106  -0.035  1.00  0.00     0.297 HD
ENDBRANCH   7   9
ENDBRANCH   1   7
BRANCH   4  11
ATOM     11  N   UNL     1       6.568   4.195  -6.158  1.00  0.00    -0.327 N 
ATOM     12  C   UNL     1       7.088   2.971  -6.428  1.00  0.00     0.190 C 
ATOM     13  N   UNL     1       7.659   2.113  -5.667  1.00  0.00    -0.269 NA
ATOM     14  N   UNL     1       6.903   2.623  -7.724  1.00  0.00    -0.370 N 
ATOM     15  H   UNL     1       5.882   4.490  -6.841  1.00  0.00     0.170 HD
ATOM     16  H   UNL     1       7.668   2.457  -4.708  1.00  0.00     0.191 HD
ATOM     17  H   UNL     1       7.261   3.307  -8.378  1.00  0.00     0.159 HD
ATOM     18  H   UNL     1       7.360   1.727  -7.882  1.00  0.00     0.159 HD
ENDBRANCH   4  11
TORSDOF 3
ENDMDL
MODEL 8
REMARK VINA RESULT:    -4.179      4.492      5.801
REMARK INTER + INTRA:          -4.937
REMARK INTER:                  -4.776
REMARK INTRA:                  -0.161
REMARK UNBOUND:                -0.147
REMARK SMILES [H]/N=C(/N)Nc1ccc(C(=O)O)cc1
REMARK SMILES IDX 9 1 8 2 7 3 6 4 14 5 13 6 10 7 11 8 12 9 5 11 3 12 2 13 4 14
REMARK SMILES IDX 1 16
REMARK H PARENT 12 10 5 15 4 17 4 18
ROOT
ATOM      1  C   UNL     1       5.490   6.555  -3.146  1.00  0.00     0.060 A 
ATOM      2  C   UNL     1       4.822   7.563  -3.849  1.00  0.00     0.018 A 
ATOM      3  C   UNL     1       4.777   8.871  -3.343  1.00  0.00     0.027 A 
ATOM      4  C   UNL     1       5.393   9.197  -2.131  1.00  0.00     0.041 A 
ATOM      5  C   UNL     1       6.067   8.171  -1.442  1.00  0.00     0.027 A 
ATOM      6  C   UNL     1       6.129   6.867  -1.944  1.00  0.00     0.018 A 
ENDROOT
BRANCH   1   7
ATOM      7  C   UNL     1       5.554   5.196  -3.742  1.00  0.00     0.335 C 
ATOM      8  O   UNL     1       4.636   4.401  -3.672  1.00  0.00    -0.246 OA
BRANCH   7   9
ATOM      9  O   UNL     1       6.730   4.918  -4.343  1.00  0.00    -0.478 OA
ATOM     10  H   UNL     1       7.518   5.292  -3.906  1.00  0.00     0.297 HD
ENDBRANCH   7   9
ENDBRANCH   1   7
BRANCH   4  11
ATOM     11  N   UNL     1       5.395  10.479  -1.564  1.00  0.00    -0.327 N 
ATOM     12  C   UNL     1       4.416  11.199  -0.959  1.00  0.00     0.190 C 
ATOM     13  N   UNL     1       3.240  10.865  -0.577  1.00  0.00    -0.269 NA
ATOM     14  N   UNL     1       4.818  12.464  -0.690  1.00  0.00    -0.370 N 
ATOM     15  H   UNL     1       6.315  10.877  -1.430  1.00  0.00     0.170 HD
ATOM     16  H   UNL     1       3.087   9.875  -0.764  1.00  0.00     0.191 HD
ATOM     17  H   UNL     1       5.162  12.958  -1.504  1.00  0.00     0.159 HD
ATOM     18  H   UNL     1       4.031  12.971  -0.291  1.00  0.00     0.159 HD
ENDBRANCH   4  11
TORSDOF 3
ENDMDL
MODEL 9
REMARK VINA RESULT:    -4.170      4.266      5.593
REMARK INTER + INTRA:          -4.926
REMARK INTER:                  -4.787
REMARK INTRA:                  -0.139
REMARK UNBOUND:                -0.147
REMARK SMILES [H]/N=C(/N)Nc1ccc(C(=O)O)cc1
REMARK SMILES IDX 9 1 8 2 7 3 6 4 14 5 13 6 10 7 11 8 12 9 5 11 3 12 2 13 4 14
REMARK SMILES IDX 1 16
REMARK H PARENT 12 10 5 15 4 17 4 18
ROOT
ATOM      1  C   UNL     1       8.421   5.101  -5.887  1.00  0.00     0.060 A 
ATOM      2  C   UNL     1       7.548   4.098  -6.324  1.00  0.00     0.018 A 
ATOM      3  C   UNL     1       7.945   2.753  -6.308  1.00  0.00     0.027 A 
ATOM      4  C   UNL     1       9.217   2.383  -5.859  1.00  0.00     0.041 A 
ATOM      5  C   UNL     1      10.079   3.403  -5.415  1.00  0.00     0.027 A 
ATOM      6  C   UNL     1       9.687   4.747  -5.416  1.00  0.00     0.018 A 
ENDROOT
BRANCH   1   7
ATOM      7  C   UNL     1       7.941   6.506  -5.877  1.00  0.00     0.335 C 
ATOM      8  O   UNL     1       6.914   6.849  -5.323  1.00  0.00    -0.246 OA
BRANCH   7   9
ATOM      9  O   UNL     1       8.734   7.357  -6.561  1.00  0.00    -0.478 OA
ATOM     10  H   UNL     1       9.568   6.975  -6.891  1.00  0.00     0.297 HD
ENDBRANCH   7   9
ENDBRANCH   1   7
BRANCH   4  11
ATOM     11  N   UNL     1       9.683   1.061  -5.808  1.00  0.00    -0.327 N 
ATOM     12  C   UNL     1       9.300  -0.002  -5.057  1.00  0.00     0.190 C 
ATOM     13  N   UNL     1       8.292  -0.166  -4.283  1.00  0.00    -0.269 NA
ATOM     14  N   UNL     1      10.128  -1.060  -5.227  1.00  0.00    -0.370 N 
ATOM     15  H   UNL     1      10.294   0.803  -6.572  1.00  0.00     0.170 HD
ATOM     16  H   UNL     1       7.707   0.669  -4.300  1.00  0.00     0.191 HD
ATOM     17  H   UNL     1      11.100  -0.841  -5.052  1.00  0.00     0.159 HD
ATOM     18  H   UNL     1       9.827  -1.804  -4.601  1.00  0.00     0.159 HD
ENDBRANCH   4  11
TORSDOF 3
ENDMDL
