MODEL 1
REMARK VINA RESULT:    -6.415      0.000      0.000
REMARK INTER + INTRA:          -7.091
REMARK INTER:                  -6.978
REMARK INTRA:                  -0.113
REMARK UNBOUND:                -0.113
REMARK SMILES [H]/N=C(\N)Nc1ccc(O)cc1
REMARK SMILES IDX 6 1 7 2 8 3 9 4 11 5 12 6 5 7 4 8 3 9 2 10 1 13 10 15
REMARK H PARENT 4 11 4 12 5 14 10 16
ROOT
ATOM      1  C   UNL     1      22.501  -9.329  -9.236  1.00  0.00     0.041 A 
ATOM      2  C   UNL     1      21.435  -8.445  -9.451  1.00  0.00     0.030 A 
ATOM      3  C   UNL     1      20.648  -8.538 -10.603  1.00  0.00     0.048 A 
ATOM      4  C   UNL     1      20.940  -9.509 -11.554  1.00  0.00     0.115 A 
ATOM      5  C   UNL     1      22.018 -10.366 -11.385  1.00  0.00     0.048 A 
ATOM      6  C   UNL     1      22.796 -10.273 -10.230  1.00  0.00     0.030 A 
ENDROOT
BRANCH   1   7
ATOM      7  N   UNL     1      23.198  -9.275  -8.013  1.00  0.00    -0.327 N 
ATOM      8  N   UNL     1      21.924 -10.721  -6.742  1.00  0.00    -0.370 N 
ATOM      9  C   UNL     1      23.129 -10.158  -6.983  1.00  0.00     0.190 C 
ATOM     10  N   UNL     1      24.149 -10.385  -6.231  1.00  0.00    -0.269 NA
ATOM     11  H   UNL     1      21.770 -11.068  -5.807  1.00  0.00     0.159 HD
ATOM     12  H   UNL     1      21.147 -10.161  -7.079  1.00  0.00     0.159 HD
ATOM     13  H   UNL     1      23.891 -11.082  -5.529  1.00  0.00     0.191 HD
ATOM     14  H   UNL     1      24.110  -8.840  -8.093  1.00  0.00     0.170 HD
ENDBRANCH   1   7
BRANCH   4  15
ATOM     15  O   UNL     1      20.184  -9.661 -12.677  1.00  0.00    -0.508 OA
ATOM     16  H   UNL     1      19.705 -10.502 -12.619  1.00  0.00     0.293 HD
ENDBRANCH   4  15
TORSDOF 2
ENDMDL
MODEL 2
REMARK VINA RESULT:    -6.414      3.457      4.934
REMARK INTER + INTRA:          -7.090
REMARK INTER:                  -6.962
REMARK INTRA:                  -0.127
REMARK UNBOUND:                -0.113
REMARK SMILES [H]/N=C(\N)Nc1ccc(O)cc1
REMARK SMILES IDX 6 1 7 2 8 3 9 4 11 5 12 6 5 7 4 8 3 9 2 10 1 13 10 15
REMARK H PARENT 4 11 4 12 5 14 10 16
ROOT
ATOM      1  C   UNL     1      21.821  -9.883  -9.686  1.00  0.00     0.041 A 
ATOM      2  C   UNL     1      22.444 -11.138  -9.674  1.00  0.00     0.030 A 
ATOM      3  C   UNL     1      23.346 -11.482  -8.661  1.00  0.00     0.048 A 
ATOM      4  C   UNL     1      23.638 -10.557  -7.665  1.00  0.00     0.115 A 
ATOM      5  C   UNL     1      23.069  -9.293  -7.681  1.00  0.00     0.048 A 
ATOM      6  C   UNL     1      22.165  -8.958  -8.691  1.00  0.00     0.030 A 
ENDROOT
BRANCH   1   7
ATOM      7  N   UNL     1      20.837  -9.618 -10.659  1.00  0.00    -0.327 N 
ATOM      8  N   UNL     1      22.139  -8.713 -12.336  1.00  0.00    -0.370 N 
ATOM      9  C   UNL     1      21.025  -9.393 -11.985  1.00  0.00     0.190 C 
ATOM     10  N   UNL     1      20.143  -9.748 -12.852  1.00  0.00    -0.269 NA
ATOM     11  H   UNL     1      22.112  -8.234 -13.224  1.00  0.00     0.159 HD
ATOM     12  H   UNL     1      22.500  -8.125 -11.591  1.00  0.00     0.159 HD
ATOM     13  H   UNL     1      20.479  -9.498 -13.785  1.00  0.00     0.191 HD
ATOM     14  H   UNL     1      19.951 -10.070 -10.462  1.00  0.00     0.170 HD
ENDBRANCH   1   7
BRANCH   4  15
ATOM     15  O   UNL     1      24.484 -10.855  -6.639  1.00  0.00    -0.508 OA
ATOM     16  H   UNL     1      25.376 -10.555  -6.873  1.00  0.00     0.293 HD
ENDBRANCH   4  15
TORSDOF 2
ENDMDL
MODEL 3
REMARK VINA RESULT:    -6.371      3.431      4.715
REMARK INTER + INTRA:          -7.043
REMARK INTER:                  -6.934
REMARK INTRA:                  -0.109
REMARK UNBOUND:                -0.113
REMARK SMILES [H]/N=C(\N)Nc1ccc(O)cc1
REMARK SMILES IDX 6 1 7 2 8 3 9 4 11 5 12 6 5 7 4 8 3 9 2 10 1 13 10 15
REMARK H PARENT 4 11 4 12 5 14 10 16
ROOT
ATOM      1  C   UNL     1      21.622  -9.955  -9.526  1.00  0.00     0.041 A 
ATOM      2  C   UNL     1      22.037  -8.973  -8.617  1.00  0.00     0.030 A 
ATOM      3  C   UNL     1      22.999  -9.259  -7.643  1.00  0.00     0.048 A 
ATOM      4  C   UNL     1      23.536 -10.539  -7.567  1.00  0.00     0.115 A 
ATOM      5  C   UNL     1      23.108 -11.539  -8.427  1.00  0.00     0.048 A 
ATOM      6  C   UNL     1      22.152 -11.247  -9.401  1.00  0.00     0.030 A 
ENDROOT
BRANCH   1   7
ATOM      7  N   UNL     1      20.735  -9.597 -10.561  1.00  0.00    -0.327 N 
ATOM      8  N   UNL     1      22.231  -8.868 -12.160  1.00  0.00    -0.370 N 
ATOM      9  C   UNL     1      21.028  -9.414 -11.874  1.00  0.00     0.190 C 
ATOM     10  N   UNL     1      20.168  -9.682 -12.793  1.00  0.00    -0.269 NA
ATOM     11  H   UNL     1      22.313  -8.403 -13.052  1.00  0.00     0.159 HD
ATOM     12  H   UNL     1      22.609  -8.313 -11.399  1.00  0.00     0.159 HD
ATOM     13  H   UNL     1      20.587  -9.485 -13.704  1.00  0.00     0.191 HD
ATOM     14  H   UNL     1      19.794  -9.944 -10.417  1.00  0.00     0.170 HD
ENDBRANCH   1   7
BRANCH   4  15
ATOM     15  O   UNL     1      24.499 -10.858  -6.658  1.00  0.00    -0.508 OA
ATOM     16  H   UNL     1      24.143 -10.723  -5.766  1.00  0.00     0.293 HD
ENDBRANCH   4  15
TORSDOF 2
ENDMDL
MODEL 4
REMARK VINA RESULT:    -6.275      1.316      1.637
REMARK INTER + INTRA:          -6.939
REMARK INTER:                  -6.813
REMARK INTRA:                  -0.126
REMARK UNBOUND:                -0.113
REMARK SMILES [H]/N=C(\N)Nc1ccc(O)cc1
REMARK SMILES IDX 6 1 7 2 8 3 9 4 11 5 12 6 5 7 4 8 3 9 2 10 1 13 10 15
REMARK H PARENT 4 11 4 12 5 14 10 16
ROOT
ATOM      1  C   UNL     1      21.988  -9.214  -9.543  1.00  0.00     0.041 A 
ATOM      2  C   UNL     1      22.077  -7.821  -9.669  1.00  0.00     0.030 A 
ATOM      3  C   UNL     1      21.664  -7.180 -10.842  1.00  0.00     0.048 A 
ATOM      4  C   UNL     1      21.176  -7.939 -11.900  1.00  0.00     0.115 A 
ATOM      5  C   UNL     1      21.120  -9.322 -11.814  1.00  0.00     0.048 A 
ATOM      6  C   UNL     1      21.528  -9.955 -10.640  1.00  0.00     0.030 A 
ENDROOT
BRANCH   1   7
ATOM      7  N   UNL     1      22.308  -9.809  -8.307  1.00  0.00    -0.327 N 
ATOM      8  N   UNL     1      24.522 -10.357  -8.667  1.00  0.00    -0.370 N 
ATOM      9  C   UNL     1      23.545 -10.030  -7.791  1.00  0.00     0.190 C 
ATOM     10  N   UNL     1      23.753  -9.999  -6.521  1.00  0.00    -0.269 NA
ATOM     11  H   UNL     1      25.310 -10.862  -8.292  1.00  0.00     0.159 HD
ATOM     12  H   UNL     1      24.168 -10.772  -9.523  1.00  0.00     0.159 HD
ATOM     13  H   UNL     1      24.744 -10.179  -6.346  1.00  0.00     0.191 HD
ATOM     14  H   UNL     1      21.612  -9.638  -7.590  1.00  0.00     0.170 HD
ENDBRANCH   1   7
BRANCH   4  15
ATOM     15  O   UNL     1      20.730  -7.359 -13.050  1.00  0.00    -0.508 OA
ATOM     16  H   UNL     1      21.465  -6.876 -13.460  1.00  0.00     0.293 HD
ENDBRANCH   4  15
TORSDOF 2
ENDMDL
MODEL 5
REMARK VINA RESULT:    -6.095      3.586      4.733
REMARK INTER + INTRA:          -6.742
REMARK INTER:                  -6.722
REMARK INTRA:                  -0.020
REMARK UNBOUND:                -0.113
REMARK SMILES [H]/N=C(\N)Nc1ccc(O)cc1
REMARK SMILES IDX 6 1 7 2 8 3 9 4 11 5 12 6 5 7 4 8 3 9 2 10 1 13 10 15
REMARK H PARENT 4 11 4 12 5 14 10 16
ROOT
ATOM      1  C   UNL     1      22.025  -6.954 -11.487  1.00  0.00     0.041 A 
ATOM      2  C   UNL     1      22.183  -7.820 -12.577  1.00  0.00     0.030 A 
ATOM      3  C   UNL     1      21.862  -9.177 -12.467  1.00  0.00     0.048 A 
ATOM      4  C   UNL     1      21.396  -9.672 -11.254  1.00  0.00     0.115 A 
ATOM      5  C   UNL     1      21.273  -8.843 -10.149  1.00  0.00     0.048 A 
ATOM      6  C   UNL     1      21.590  -7.489 -10.267  1.00  0.00     0.030 A 
ENDROOT
BRANCH   1   7
ATOM      7  N   UNL     1      22.253  -5.576 -11.671  1.00  0.00    -0.327 N 
ATOM      8  N   UNL     1      24.126  -5.282 -10.355  1.00  0.00    -0.370 N 
ATOM      9  C   UNL     1      23.396  -4.886 -11.421  1.00  0.00     0.190 C 
ATOM     10  N   UNL     1      23.724  -3.861 -12.126  1.00  0.00    -0.269 NA
ATOM     11  H   UNL     1      24.742  -4.592  -9.951  1.00  0.00     0.159 HD
ATOM     12  H   UNL     1      23.577  -5.768  -9.652  1.00  0.00     0.159 HD
ATOM     13  H   UNL     1      24.615  -3.497 -11.784  1.00  0.00     0.191 HD
ATOM     14  H   UNL     1      21.721  -5.183 -12.440  1.00  0.00     0.170 HD
ENDBRANCH   1   7
BRANCH   4  15
ATOM     15  O   UNL     1      21.038 -10.979 -11.106  1.00  0.00    -0.508 OA
ATOM     16  H   UNL     1      21.102 -11.419 -11.967  1.00  0.00     0.293 HD
ENDBRANCH   4  15
TORSDOF 2
ENDMDL
MODEL 6
REMARK VINA RESULT:    -6.080      4.262      5.325
REMARK INTER + INTRA:          -6.726
REMARK INTER:                  -6.680
REMARK INTRA:                  -0.046
REMARK UNBOUND:                -0.113
REMARK SMILES [H]/N=C(\N)Nc1ccc(O)cc1
REMARK SMILES IDX 6 1 7 2 8 3 9 4 11 5 12 6 5 7 4 8 3 9 2 10 1 13 10 15
REMARK H PARENT 4 11 4 12 5 14 10 16
ROOT
ATOM      1  C   UNL     1      22.355  -7.120 -12.159  1.00  0.00     0.041 A 
ATOM      2  C   UNL     1      22.180  -6.742 -10.821  1.00  0.00     0.030 A 
ATOM      3  C   UNL     1      21.319  -7.457  -9.981  1.00  0.00     0.048 A 
ATOM      4  C   UNL     1      20.617  -8.544 -10.487  1.00  0.00     0.115 A 
ATOM      5  C   UNL     1      20.740  -8.910 -11.820  1.00  0.00     0.048 A 
ATOM      6  C   UNL     1      21.605  -8.197 -12.651  1.00  0.00     0.030 A 
ENDROOT
BRANCH   1   7
ATOM      7  N   UNL     1      23.313  -6.445 -12.940  1.00  0.00    -0.327 N 
ATOM      8  N   UNL     1      22.215  -4.451 -13.319  1.00  0.00    -0.370 N 
ATOM      9  C   UNL     1      23.387  -5.112 -13.189  1.00  0.00     0.190 C 
ATOM     10  N   UNL     1      24.521  -4.528 -13.364  1.00  0.00    -0.269 NA
ATOM     11  H   UNL     1      22.241  -3.590 -13.845  1.00  0.00     0.159 HD
ATOM     12  H   UNL     1      21.446  -5.051 -13.599  1.00  0.00     0.159 HD
ATOM     13  H   UNL     1      24.356  -3.532 -13.527  1.00  0.00     0.191 HD
ATOM     14  H   UNL     1      24.225  -6.889 -12.924  1.00  0.00     0.170 HD
ENDBRANCH   1   7
BRANCH   4  15
ATOM     15  O   UNL     1      19.793  -9.292  -9.702  1.00  0.00    -0.508 OA
ATOM     16  H   UNL     1      19.509 -10.073 -10.203  1.00  0.00     0.293 HD
ENDBRANCH   4  15
TORSDOF 2
ENDMDL
MODEL 7
REMARK VINA RESULT:    -6.047      3.397      4.270
REMARK INTER + INTRA:          -6.691
REMARK INTER:                  -6.621
REMARK INTRA:                  -0.070
REMARK UNBOUND:                -0.113
REMARK SMILES [H]/N=C(\N)Nc1ccc(O)cc1
REMARK SMILES IDX 6 1 7 2 8 3 9 4 11 5 12 6 5 7 4 8 3 9 2 10 1 13 10 15
REMARK H PARENT 4 11 4 12 5 14 10 16
ROOT
ATOM      1  C   UNL     1      21.710  -8.163 -11.179  1.00  0.00     0.041 A 
ATOM      2  C   UNL     1      21.971  -7.549 -12.412  1.00  0.00     0.030 A 
ATOM      3  C   UNL     1      22.631  -6.317 -12.474  1.00  0.00     0.048 A 
ATOM      4  C   UNL     1      23.016  -5.689 -11.296  1.00  0.00     0.115 A 
ATOM      5  C   UNL     1      22.729  -6.255 -10.063  1.00  0.00     0.048 A 
ATOM      6  C   UNL     1      22.076  -7.486 -10.007  1.00  0.00     0.030 A 
ENDROOT
BRANCH   1   7
ATOM      7  N   UNL     1      21.145  -9.453 -11.164  1.00  0.00    -0.327 N 
ATOM      8  N   UNL     1      23.013 -10.734 -11.609  1.00  0.00    -0.370 N 
ATOM      9  C   UNL     1      21.794 -10.638 -11.032  1.00  0.00     0.190 C 
ATOM     10  N   UNL     1      21.237 -11.642 -10.449  1.00  0.00    -0.269 NA
ATOM     11  H   UNL     1      23.331 -11.664 -11.835  1.00  0.00     0.159 HD
ATOM     12  H   UNL     1      23.143 -10.084 -12.378  1.00  0.00     0.159 HD
ATOM     13  H   UNL     1      21.893 -12.426 -10.447  1.00  0.00     0.191 HD
ATOM     14  H   UNL     1      20.211  -9.474 -10.770  1.00  0.00     0.170 HD
ENDBRANCH   1   7
BRANCH   4  15
ATOM     15  O   UNL     1      23.691  -4.505 -11.305  1.00  0.00    -0.508 OA
ATOM     16  H   UNL     1      23.435  -3.995 -10.520  1.00  0.00     0.293 HD
ENDBRANCH   4  15
TORSDOF 2
ENDMDL
MODEL 8
REMARK VINA RESULT:    -5.865      2.723      3.312
REMARK INTER + INTRA:          -6.492
REMARK INTER:                  -6.392
REMARK INTRA:                  -0.100
REMARK UNBOUND:                -0.113
REMARK SMILES [H]/N=C(\N)Nc1ccc(O)cc1
REMARK SMILES IDX 6 1 7 2 8 3 9 4 11 5 12 6 5 7 4 8 3 9 2 10 1 13 10 15
REMARK H PARENT 4 11 4 12 5 14 10 16
ROOT
ATOM      1  C   UNL     1      21.968  -7.532 -10.274  1.00  0.00     0.041 A 
ATOM      2  C   UNL     1      21.760  -8.153 -11.513  1.00  0.00     0.030 A 
ATOM      3  C   UNL     1      22.229  -7.570 -12.695  1.00  0.00     0.048 A 
ATOM      4  C   UNL     1      22.895  -6.351 -12.637  1.00  0.00     0.115 A 
ATOM      5  C   UNL     1      23.073  -5.696 -11.428  1.00  0.00     0.048 A 
ATOM      6  C   UNL     1      22.608  -6.285 -10.251  1.00  0.00     0.030 A 
ENDROOT
BRANCH   1   7
ATOM      7  N   UNL     1      21.580  -8.205  -9.098  1.00  0.00    -0.327 N 
ATOM      8  N   UNL     1      23.432  -9.536  -8.746  1.00  0.00    -0.370 N 
ATOM      9  C   UNL     1      22.378  -8.870  -8.224  1.00  0.00     0.190 C 
ATOM     10  N   UNL     1      22.096  -8.919  -6.969  1.00  0.00    -0.269 NA
ATOM     11  H   UNL     1      23.798 -10.298  -8.196  1.00  0.00     0.159 HD
ATOM     12  H   UNL     1      23.302  -9.789  -9.720  1.00  0.00     0.159 HD
ATOM     13  H   UNL     1      22.823  -9.456  -6.489  1.00  0.00     0.191 HD
ATOM     14  H   UNL     1      20.772  -7.788  -8.649  1.00  0.00     0.170 HD
ENDBRANCH   1   7
BRANCH   4  15
ATOM     15  O   UNL     1      23.400  -5.759 -13.756  1.00  0.00    -0.508 OA
ATOM     16  H   UNL     1      23.349  -4.796 -13.648  1.00  0.00     0.293 HD
ENDBRANCH   4  15
TORSDOF 2
ENDMDL
MODEL 9
REMARK VINA RESULT:    -5.759      2.240      2.801
REMARK INTER + INTRA:          -6.377
REMARK INTER:                  -6.254
REMARK INTRA:                  -0.123
REMARK UNBOUND:                -0.113
REMARK SMILES [H]/N=C(\N)Nc1ccc(O)cc1
REMARK SMILES IDX 6 1 7 2 8 3 9 4 11 5 12 6 5 7 4 8 3 9 2 10 1 13 10 15
REMARK H PARENT 4 11 4 12 5 14 10 16
ROOT
ATOM      1  C   UNL     1      22.050  -9.135 -10.457  1.00  0.00     0.041 A 
ATOM      2  C   UNL     1      21.675  -9.388 -11.783  1.00  0.00     0.030 A 
ATOM      3  C   UNL     1      21.292  -8.344 -12.631  1.00  0.00     0.048 A 
ATOM      4  C   UNL     1      21.267  -7.042 -12.144  1.00  0.00     0.115 A 
ATOM      5  C   UNL     1      21.590  -6.773 -10.822  1.00  0.00     0.048 A 
ATOM      6  C   UNL     1      21.977  -7.818  -9.983  1.00  0.00     0.030 A 
ENDROOT
BRANCH   1   7
ATOM      7  N   UNL     1      22.536 -10.198  -9.670  1.00  0.00    -0.327 N 
ATOM      8  N   UNL     1      20.561 -11.004  -8.788  1.00  0.00    -0.370 N 
ATOM      9  C   UNL     1      21.833 -11.249  -9.175  1.00  0.00     0.190 C 
ATOM     10  N   UNL     1      22.381 -12.402  -9.015  1.00  0.00    -0.269 NA
ATOM     11  H   UNL     1      20.167 -11.638  -8.111  1.00  0.00     0.159 HD
ATOM     12  H   UNL     1      20.396 -10.031  -8.548  1.00  0.00     0.159 HD
ATOM     13  H   UNL     1      21.683 -13.050  -8.643  1.00  0.00     0.191 HD
ATOM     14  H   UNL     1      23.500 -10.436  -9.873  1.00  0.00     0.170 HD
ENDBRANCH   1   7
BRANCH   4  15
ATOM     15  O   UNL     1      20.933  -5.987 -12.939  1.00  0.00    -0.508 OA
ATOM     16  H   UNL     1      21.721  -5.438 -13.075  1.00  0.00     0.293 HD
ENDBRANCH   4  15
TORSDOF 2
ENDMDL
