MODEL 1
REMARK VINA RESULT:    -6.763      0.000      0.000
REMARK INTER + INTRA:          -6.961
REMARK INTER:                  -6.961
REMARK INTRA:                   0.000
REMARK UNBOUND:                 0.000
REMARK SMILES C[C@]12CCC(=O)C[C@@H]1CC[C@@H]1[C@@H]2CC[C@]2(C)[C@H](O)CC[C@@H]12
REMARK SMILES IDX 1 1 2 2 3 3 4 4 5 5 6 6 7 7 8 8 9 9 10 10 11 11 12 12 13 13
REMARK SMILES IDX 14 14 15 15 21 16 20 17 19 18 17 19 16 20 18 21
REMARK H PARENT 18 22
ROOT
ATOM      1  C   UNL     1       0.143  -0.041   8.987  1.00  0.00     0.012 C 
ATOM      2  C   UNL     1       0.578   0.364  10.414  1.00  0.00    -0.026 C 
ATOM      3  C   UNL     1      -0.344  -0.386  11.428  1.00  0.00     0.015 C 
ATOM      4  C   UNL     1      -1.812   0.050  11.347  1.00  0.00     0.076 C 
ATOM      5  C   UNL     1      -1.937   1.545  11.497  1.00  0.00     0.133 C 
ATOM      6  O   UNL     1      -2.769   2.057  12.245  1.00  0.00    -0.300 OA
ATOM      7  C   UNL     1      -1.062   2.382  10.596  1.00  0.00     0.079 C 
ATOM      8  C   UNL     1       0.383   1.894  10.711  1.00  0.00     0.002 C 
ATOM      9  C   UNL     1       1.319   2.796   9.909  1.00  0.00     0.005 C 
ATOM     10  C   UNL     1       2.763   2.437  10.214  1.00  0.00     0.004 C 
ATOM     11  C   UNL     1       3.049   0.976   9.862  1.00  0.00    -0.004 C 
ATOM     12  C   UNL     1       2.108   0.004  10.645  1.00  0.00    -0.001 C 
ATOM     13  C   UNL     1       2.485  -1.485  10.382  1.00  0.00     0.005 C 
ATOM     14  C   UNL     1       4.007  -1.782  10.481  1.00  0.00     0.010 C 
ATOM     15  C   UNL     1       4.845  -0.804   9.634  1.00  0.00    -0.003 C 
ATOM     16  C   UNL     1       4.500   0.603  10.162  1.00  0.00     0.001 C 
ATOM     17  C   UNL     1       5.605   1.516   9.647  1.00  0.00     0.007 C 
ATOM     18  C   UNL     1       6.841   0.620   9.515  1.00  0.00     0.032 C 
ATOM     19  C   UNL     1       6.383  -0.821   9.818  1.00  0.00     0.120 C 
ATOM     20  C   UNL     1       4.575  -1.031   8.123  1.00  0.00     0.014 C 
ENDROOT
BRANCH  19  21
ATOM     21  O   UNL     1       6.770  -1.192  11.138  1.00  0.00    -0.393 OA
ATOM     22  H   UNL     1       7.678  -1.522  11.113  1.00  0.00     0.210 HD
ENDBRANCH  19  21
TORSDOF 1
ENDMDL
MODEL 2
REMARK VINA RESULT:    -5.922      1.039      6.489
REMARK INTER + INTRA:          -6.095
REMARK INTER:                  -6.095
REMARK INTRA:                   0.000
REMARK UNBOUND:                 0.000
REMARK SMILES C[C@]12CCC(=O)C[C@@H]1CC[C@@H]1[C@@H]2CC[C@]2(C)[C@H](O)CC[C@@H]12
REMARK SMILES IDX 1 1 2 2 3 3 4 4 5 5 6 6 7 7 8 8 9 9 10 10 11 11 12 12 13 13
REMARK SMILES IDX 14 14 15 15 21 16 20 17 19 18 17 19 16 20 18 21
REMARK H PARENT 18 22
ROOT
ATOM      1  C   UNL     1       3.596  -0.351   8.376  1.00  0.00     0.012 C 
ATOM      2  C   UNL     1       3.650  -0.023   9.886  1.00  0.00    -0.026 C 
ATOM      3  C   UNL     1       4.967   0.770  10.160  1.00  0.00     0.015 C 
ATOM      4  C   UNL     1       6.233  -0.058   9.912  1.00  0.00     0.076 C 
ATOM      5  C   UNL     1       6.196  -1.343  10.699  1.00  0.00     0.133 C 
ATOM      6  O   UNL     1       7.162  -1.733  11.354  1.00  0.00    -0.300 OA
ATOM      7  C   UNL     1       4.951  -2.182  10.549  1.00  0.00     0.079 C 
ATOM      8  C   UNL     1       3.724  -1.302  10.795  1.00  0.00     0.002 C 
ATOM      9  C   UNL     1       2.449  -2.141  10.775  1.00  0.00     0.005 C 
ATOM     10  C   UNL     1       1.273  -1.300  11.242  1.00  0.00     0.004 C 
ATOM     11  C   UNL     1       1.085  -0.078  10.342  1.00  0.00    -0.004 C 
ATOM     12  C   UNL     1       2.368   0.815  10.312  1.00  0.00    -0.001 C 
ATOM     13  C   UNL     1       2.131   2.122   9.497  1.00  0.00     0.005 C 
ATOM     14  C   UNL     1       0.802   2.850   9.838  1.00  0.00     0.010 C 
ATOM     15  C   UNL     1      -0.410   1.899   9.790  1.00  0.00    -0.003 C 
ATOM     16  C   UNL     1      -0.097   0.776  10.800  1.00  0.00     0.001 C 
ATOM     17  C   UNL     1      -1.427   0.087  11.071  1.00  0.00     0.007 C 
ATOM     18  C   UNL     1      -2.492   1.170  10.866  1.00  0.00     0.032 C 
ATOM     19  C   UNL     1      -1.762   2.421  10.337  1.00  0.00     0.120 C 
ATOM     20  C   UNL     1      -0.670   1.430   8.334  1.00  0.00     0.014 C 
ENDROOT
BRANCH  19  21
ATOM     21  O   UNL     1      -1.596   3.371  11.384  1.00  0.00    -0.393 OA
ATOM     22  H   UNL     1      -2.458   3.539  11.790  1.00  0.00     0.210 HD
ENDBRANCH  19  21
TORSDOF 1
ENDMDL
MODEL 3
REMARK VINA RESULT:    -5.801      2.313      3.545
REMARK INTER + INTRA:          -5.970
REMARK INTER:                  -5.970
REMARK INTRA:                   0.000
REMARK UNBOUND:                 0.000
REMARK SMILES C[C@]12CCC(=O)C[C@@H]1CC[C@@H]1[C@@H]2CC[C@]2(C)[C@H](O)CC[C@@H]12
REMARK SMILES IDX 1 1 2 2 3 3 4 4 5 5 6 6 7 7 8 8 9 9 10 10 11 11 12 12 13 13
REMARK SMILES IDX 14 14 15 15 21 16 20 17 19 18 17 19 16 20 18 21
REMARK H PARENT 18 22
ROOT
ATOM      1  C   UNL     1      -2.167   0.618  10.178  1.00  0.00     0.012 C 
ATOM      2  C   UNL     1      -1.867   2.134  10.245  1.00  0.00    -0.026 C 
ATOM      3  C   UNL     1      -2.626   2.721  11.477  1.00  0.00     0.015 C 
ATOM      4  C   UNL     1      -4.151   2.648  11.338  1.00  0.00     0.076 C 
ATOM      5  C   UNL     1      -4.605   3.299  10.057  1.00  0.00     0.133 C 
ATOM      6  O   UNL     1      -5.547   4.089  10.027  1.00  0.00    -0.300 OA
ATOM      7  C   UNL     1      -3.914   2.842   8.795  1.00  0.00     0.079 C 
ATOM      8  C   UNL     1      -2.400   2.926   8.997  1.00  0.00     0.002 C 
ATOM      9  C   UNL     1      -1.666   2.591   7.701  1.00  0.00     0.005 C 
ATOM     10  C   UNL     1      -0.186   2.896   7.855  1.00  0.00     0.004 C 
ATOM     11  C   UNL     1       0.422   2.086   9.001  1.00  0.00    -0.004 C 
ATOM     12  C   UNL     1      -0.301   2.379  10.356  1.00  0.00    -0.001 C 
ATOM     13  C   UNL     1       0.401   1.650  11.542  1.00  0.00     0.005 C 
ATOM     14  C   UNL     1       1.948   1.794  11.549  1.00  0.00     0.010 C 
ATOM     15  C   UNL     1       2.571   1.434  10.187  1.00  0.00    -0.003 C 
ATOM     16  C   UNL     1       1.912   2.384   9.165  1.00  0.00     0.001 C 
ATOM     17  C   UNL     1       2.802   2.336   7.930  1.00  0.00     0.007 C 
ATOM     18  C   UNL     1       4.207   2.026   8.455  1.00  0.00     0.032 C 
ATOM     19  C   UNL     1       4.070   1.757   9.968  1.00  0.00     0.120 C 
ATOM     20  C   UNL     1       2.394  -0.080   9.896  1.00  0.00     0.014 C 
ENDROOT
BRANCH  19  21
ATOM     21  O   UNL     1       4.496   2.894  10.710  1.00  0.00    -0.393 OA
ATOM     22  H   UNL     1       5.342   2.690  11.132  1.00  0.00     0.210 HD
ENDBRANCH  19  21
TORSDOF 1
ENDMDL
MODEL 4
REMARK VINA RESULT:    -5.782     16.456     18.891
REMARK INTER + INTRA:          -5.951
REMARK INTER:                  -5.951
REMARK INTRA:                   0.000
REMARK UNBOUND:                 0.000
REMARK SMILES C[C@]12CCC(=O)C[C@@H]1CC[C@@H]1[C@@H]2CC[C@]2(C)[C@H](O)CC[C@@H]12
REMARK SMILES IDX 1 1 2 2 3 3 4 4 5 5 6 6 7 7 8 8 9 9 10 10 11 11 12 12 13 13
REMARK SMILES IDX 14 14 15 15 21 16 20 17 19 18 17 19 16 20 18 21
REMARK H PARENT 18 22
ROOT
ATOM      1  C   UNL     1       7.272   3.420  -7.320  1.00  0.00     0.012 C 
ATOM      2  C   UNL     1       8.142   4.697  -7.382  1.00  0.00    -0.026 C 
ATOM      3  C   UNL     1       8.216   5.156  -8.873  1.00  0.00     0.015 C 
ATOM      4  C   UNL     1       8.950   4.158  -9.776  1.00  0.00     0.076 C 
ATOM      5  C   UNL     1      10.322   3.849  -9.231  1.00  0.00     0.133 C 
ATOM      6  O   UNL     1      11.322   3.848  -9.948  1.00  0.00    -0.300 OA
ATOM      7  C   UNL     1      10.386   3.432  -7.783  1.00  0.00     0.079 C 
ATOM      8  C   UNL     1       9.629   4.455  -6.935  1.00  0.00     0.002 C 
ATOM      9  C   UNL     1       9.775   4.135  -5.449  1.00  0.00     0.005 C 
ATOM     10  C   UNL     1       9.214   5.277  -4.620  1.00  0.00     0.004 C 
ATOM     11  C   UNL     1       7.737   5.510  -4.940  1.00  0.00    -0.004 C 
ATOM     12  C   UNL     1       7.523   5.829  -6.455  1.00  0.00    -0.001 C 
ATOM     13  C   UNL     1       6.036   6.190  -6.754  1.00  0.00     0.005 C 
ATOM     14  C   UNL     1       5.414   7.199  -5.750  1.00  0.00     0.010 C 
ATOM     15  C   UNL     1       5.631   6.770  -4.286  1.00  0.00    -0.003 C 
ATOM     16  C   UNL     1       7.160   6.656  -4.110  1.00  0.00     0.001 C 
ATOM     17  C   UNL     1       7.399   6.655  -2.606  1.00  0.00     0.007 C 
ATOM     18  C   UNL     1       6.241   7.463  -2.012  1.00  0.00     0.032 C 
ATOM     19  C   UNL     1       5.280   7.788  -3.173  1.00  0.00     0.120 C 
ATOM     20  C   UNL     1       4.829   5.478  -3.977  1.00  0.00     0.014 C 
ENDROOT
BRANCH  19  21
ATOM     21  O   UNL     1       5.456   9.137  -3.593  1.00  0.00    -0.393 OA
ATOM     22  H   UNL     1       4.642   9.626  -3.414  1.00  0.00     0.210 HD
ENDBRANCH  19  21
TORSDOF 1
ENDMDL
MODEL 5
REMARK VINA RESULT:    -5.767      1.654      6.390
REMARK INTER + INTRA:          -5.935
REMARK INTER:                  -5.935
REMARK INTRA:                   0.000
REMARK UNBOUND:                 0.000
REMARK SMILES C[C@]12CCC(=O)C[C@@H]1CC[C@@H]1[C@@H]2CC[C@]2(C)[C@H](O)CC[C@@H]12
REMARK SMILES IDX 1 1 2 2 3 3 4 4 5 5 6 6 7 7 8 8 9 9 10 10 11 11 12 12 13 13
REMARK SMILES IDX 14 14 15 15 21 16 20 17 19 18 17 19 16 20 18 21
REMARK H PARENT 18 22
ROOT
ATOM      1  C   UNL     1       5.065  -1.170  10.549  1.00  0.00     0.012 C 
ATOM      2  C   UNL     1       4.811  -0.411   9.226  1.00  0.00    -0.026 C 
ATOM      3  C   UNL     1       5.387  -1.275   8.059  1.00  0.00     0.015 C 
ATOM      4  C   UNL     1       6.912  -1.427   8.116  1.00  0.00     0.076 C 
ATOM      5  C   UNL     1       7.583  -0.078   8.181  1.00  0.00     0.133 C 
ATOM      6  O   UNL     1       8.546   0.204   7.468  1.00  0.00    -0.300 OA
ATOM      7  C   UNL     1       7.084   0.866   9.247  1.00  0.00     0.079 C 
ATOM      8  C   UNL     1       5.560   0.967   9.148  1.00  0.00     0.002 C 
ATOM      9  C   UNL     1       5.028   2.009  10.130  1.00  0.00     0.005 C 
ATOM     10  C   UNL     1       3.553   2.259   9.863  1.00  0.00     0.004 C 
ATOM     11  C   UNL     1       2.745   0.969  10.011  1.00  0.00    -0.004 C 
ATOM     12  C   UNL     1       3.256  -0.142   9.037  1.00  0.00    -0.001 C 
ATOM     13  C   UNL     1       2.352  -1.410   9.099  1.00  0.00     0.005 C 
ATOM     14  C   UNL     1       0.830  -1.108   9.049  1.00  0.00     0.010 C 
ATOM     15  C   UNL     1       0.416  -0.040  10.080  1.00  0.00    -0.003 C 
ATOM     16  C   UNL     1       1.259   1.208   9.746  1.00  0.00     0.001 C 
ATOM     17  C   UNL     1       0.573   2.367  10.457  1.00  0.00     0.007 C 
ATOM     18  C   UNL     1      -0.907   1.978  10.528  1.00  0.00     0.032 C 
ATOM     19  C   UNL     1      -1.019   0.538   9.988  1.00  0.00     0.120 C 
ATOM     20  C   UNL     1       0.583  -0.588  11.522  1.00  0.00     0.014 C 
ENDROOT
BRANCH  19  21
ATOM     21  O   UNL     1      -1.516   0.551   8.654  1.00  0.00    -0.393 OA
ATOM     22  H   UNL     1      -1.895  -0.316   8.457  1.00  0.00     0.210 HD
ENDBRANCH  19  21
TORSDOF 1
ENDMDL
MODEL 6
REMARK VINA RESULT:    -5.563      2.749      6.900
REMARK INTER + INTRA:          -5.726
REMARK INTER:                  -5.726
REMARK INTRA:                   0.000
REMARK UNBOUND:                 0.000
REMARK SMILES C[C@]12CCC(=O)C[C@@H]1CC[C@@H]1[C@@H]2CC[C@]2(C)[C@H](O)CC[C@@H]12
REMARK SMILES IDX 1 1 2 2 3 3 4 4 5 5 6 6 7 7 8 8 9 9 10 10 11 11 12 12 13 13
REMARK SMILES IDX 14 14 15 15 21 16 20 17 19 18 17 19 16 20 18 21
REMARK H PARENT 18 22
ROOT
ATOM      1  C   UNL     1       5.868  -3.515   8.755  1.00  0.00     0.012 C 
ATOM      2  C   UNL     1       6.070  -3.032  10.210  1.00  0.00    -0.026 C 
ATOM      3  C   UNL     1       7.603  -3.042  10.511  1.00  0.00     0.015 C 
ATOM      4  C   UNL     1       8.211  -4.450  10.497  1.00  0.00     0.076 C 
ATOM      5  C   UNL     1       7.464  -5.367  11.431  1.00  0.00     0.133 C 
ATOM      6  O   UNL     1       8.049  -6.106  12.223  1.00  0.00    -0.300 OA
ATOM      7  C   UNL     1       5.965  -5.413  11.265  1.00  0.00     0.079 C 
ATOM      8  C   UNL     1       5.418  -3.984  11.276  1.00  0.00     0.002 C 
ATOM      9  C   UNL     1       3.892  -3.994  11.234  1.00  0.00     0.005 C 
ATOM     10  C   UNL     1       3.364  -2.590  11.472  1.00  0.00     0.004 C 
ATOM     11  C   UNL     1       3.889  -1.622  10.412  1.00  0.00    -0.004 C 
ATOM     12  C   UNL     1       5.451  -1.580  10.398  1.00  0.00    -0.001 C 
ATOM     13  C   UNL     1       5.981  -0.501   9.406  1.00  0.00     0.005 C 
ATOM     14  C   UNL     1       5.264   0.872   9.519  1.00  0.00     0.010 C 
ATOM     15  C   UNL     1       3.730   0.731   9.470  1.00  0.00    -0.003 C 
ATOM     16  C   UNL     1       3.362  -0.205  10.639  1.00  0.00     0.001 C 
ATOM     17  C   UNL     1       1.868  -0.014  10.861  1.00  0.00     0.007 C 
ATOM     18  C   UNL     1       1.573   1.422  10.417  1.00  0.00     0.032 C 
ATOM     19  C   UNL     1       2.877   1.979   9.810  1.00  0.00     0.120 C 
ATOM     20  C   UNL     1       3.276   0.251   8.066  1.00  0.00     0.014 C 
ENDROOT
BRANCH  19  21
ATOM     21  O   UNL     1       3.522   2.842  10.741  1.00  0.00    -0.393 OA
ATOM     22  H   UNL     1       2.848   3.362  11.199  1.00  0.00     0.210 HD
ENDBRANCH  19  21
TORSDOF 1
ENDMDL
MODEL 7
REMARK VINA RESULT:    -5.547     14.696     15.950
REMARK INTER + INTRA:          -5.709
REMARK INTER:                  -5.709
REMARK INTRA:                   0.000
REMARK UNBOUND:                 0.000
REMARK SMILES C[C@]12CCC(=O)C[C@@H]1CC[C@@H]1[C@@H]2CC[C@]2(C)[C@H](O)CC[C@@H]12
REMARK SMILES IDX 1 1 2 2 3 3 4 4 5 5 6 6 7 7 8 8 9 9 10 10 11 11 12 12 13 13
REMARK SMILES IDX 14 14 15 15 21 16 20 17 19 18 17 19 16 20 18 21
REMARK H PARENT 18 22
ROOT
ATOM      1  C   UNL     1       4.069   8.733  -4.412  1.00  0.00     0.012 C 
ATOM      2  C   UNL     1       4.131   7.585  -3.378  1.00  0.00    -0.026 C 
ATOM      3  C   UNL     1       2.668   7.115  -3.094  1.00  0.00     0.015 C 
ATOM      4  C   UNL     1       1.811   8.187  -2.411  1.00  0.00     0.076 C 
ATOM      5  C   UNL     1       2.478   8.687  -1.155  1.00  0.00     0.133 C 
ATOM      6  O   UNL     1       1.862   8.812  -0.097  1.00  0.00    -0.300 OA
ATOM      7  C   UNL     1       3.912   9.134  -1.293  1.00  0.00     0.079 C 
ATOM      8  C   UNL     1       4.713   8.032  -1.989  1.00  0.00     0.002 C 
ATOM      9  C   UNL     1       6.196   8.395  -2.037  1.00  0.00     0.005 C 
ATOM     10  C   UNL     1       7.001   7.201  -2.522  1.00  0.00     0.004 C 
ATOM     11  C   UNL     1       6.545   6.766  -3.916  1.00  0.00    -0.004 C 
ATOM     12  C   UNL     1       5.026   6.395  -3.932  1.00  0.00    -0.001 C 
ATOM     13  C   UNL     1       4.595   5.832  -5.319  1.00  0.00     0.005 C 
ATOM     14  C   UNL     1       5.563   4.765  -5.901  1.00  0.00     0.010 C 
ATOM     15  C   UNL     1       7.028   5.245  -5.890  1.00  0.00    -0.003 C 
ATOM     16  C   UNL     1       7.349   5.567  -4.416  1.00  0.00     0.001 C 
ATOM     17  C   UNL     1       8.868   5.626  -4.332  1.00  0.00     0.007 C 
ATOM     18  C   UNL     1       9.371   4.679  -5.426  1.00  0.00     0.032 C 
ATOM     19  C   UNL     1       8.132   4.207  -6.214  1.00  0.00     0.120 C 
ATOM     20  C   UNL     1       7.218   6.421  -6.884  1.00  0.00     0.014 C 
ENDROOT
BRANCH  19  21
ATOM     21  O   UNL     1       7.772   2.888  -5.819  1.00  0.00    -0.393 OA
ATOM     22  H   UNL     1       7.542   2.380  -6.609  1.00  0.00     0.210 HD
ENDBRANCH  19  21
TORSDOF 1
ENDMDL
MODEL 8
REMARK VINA RESULT:    -5.507      2.110      3.627
REMARK INTER + INTRA:          -5.668
REMARK INTER:                  -5.668
REMARK INTRA:                   0.000
REMARK UNBOUND:                 0.000
REMARK SMILES C[C@]12CCC(=O)C[C@@H]1CC[C@@H]1[C@@H]2CC[C@]2(C)[C@H](O)CC[C@@H]12
REMARK SMILES IDX 1 1 2 2 3 3 4 4 5 5 6 6 7 7 8 8 9 9 10 10 11 11 12 12 13 13
REMARK SMILES IDX 14 14 15 15 21 16 20 17 19 18 17 19 16 20 18 21
REMARK H PARENT 18 22
ROOT
ATOM      1  C   UNL     1       2.572  -0.113  10.779  1.00  0.00     0.012 C 
ATOM      2  C   UNL     1       2.894   0.760   9.544  1.00  0.00    -0.026 C 
ATOM      3  C   UNL     1       2.906   2.254  10.001  1.00  0.00     0.015 C 
ATOM      4  C   UNL     1       1.533   2.754  10.466  1.00  0.00     0.076 C 
ATOM      5  C   UNL     1       0.488   2.516   9.405  1.00  0.00     0.133 C 
ATOM      6  O   UNL     1      -0.313   3.389   9.074  1.00  0.00    -0.300 OA
ATOM      7  C   UNL     1       0.405   1.115   8.852  1.00  0.00     0.079 C 
ATOM      8  C   UNL     1       1.803   0.667   8.418  1.00  0.00     0.002 C 
ATOM      9  C   UNL     1       1.741  -0.699   7.739  1.00  0.00     0.005 C 
ATOM     10  C   UNL     1       3.089  -1.024   7.117  1.00  0.00     0.004 C 
ATOM     11  C   UNL     1       4.190  -1.040   8.177  1.00  0.00    -0.004 C 
ATOM     12  C   UNL     1       4.291   0.333   8.918  1.00  0.00    -0.001 C 
ATOM     13  C   UNL     1       5.494   0.356   9.908  1.00  0.00     0.005 C 
ATOM     14  C   UNL     1       6.818  -0.194   9.311  1.00  0.00     0.010 C 
ATOM     15  C   UNL     1       6.627  -1.574   8.650  1.00  0.00    -0.003 C 
ATOM     16  C   UNL     1       5.551  -1.368   7.564  1.00  0.00     0.001 C 
ATOM     17  C   UNL     1       5.660  -2.577   6.646  1.00  0.00     0.007 C 
ATOM     18  C   UNL     1       7.125  -3.016   6.728  1.00  0.00     0.032 C 
ATOM     19  C   UNL     1       7.796  -2.140   7.805  1.00  0.00     0.120 C 
ATOM     20  C   UNL     1       6.293  -2.644   9.722  1.00  0.00     0.014 C 
ENDROOT
BRANCH  19  21
ATOM     21  O   UNL     1       8.571  -1.115   7.192  1.00  0.00    -0.393 OA
ATOM     22  H   UNL     1       9.367  -1.514   6.813  1.00  0.00     0.210 HD
ENDBRANCH  19  21
TORSDOF 1
ENDMDL
MODEL 9
REMARK VINA RESULT:    -5.484      7.392      9.861
REMARK INTER + INTRA:          -5.645
REMARK INTER:                  -5.645
REMARK INTRA:                   0.000
REMARK UNBOUND:                 0.000
REMARK SMILES C[C@]12CCC(=O)C[C@@H]1CC[C@@H]1[C@@H]2CC[C@]2(C)[C@H](O)CC[C@@H]12
REMARK SMILES IDX 1 1 2 2 3 3 4 4 5 5 6 6 7 7 8 8 9 9 10 10 11 11 12 12 13 13
REMARK SMILES IDX 14 14 15 15 21 16 20 17 19 18 17 19 16 20 18 21
REMARK H PARENT 18 22
ROOT
ATOM      1  C   UNL     1       0.524  -0.529   0.904  1.00  0.00     0.012 C 
ATOM      2  C   UNL     1       1.795   0.352   0.889  1.00  0.00    -0.026 C 
ATOM      3  C   UNL     1       1.971   0.917  -0.557  1.00  0.00     0.015 C 
ATOM      4  C   UNL     1       2.257  -0.171  -1.599  1.00  0.00     0.076 C 
ATOM      5  C   UNL     1       3.444  -1.007  -1.190  1.00  0.00     0.133 C 
ATOM      6  O   UNL     1       4.346  -1.286  -1.980  1.00  0.00    -0.300 OA
ATOM      7  C   UNL     1       3.410  -1.577   0.206  1.00  0.00     0.079 C 
ATOM      8  C   UNL     1       3.109  -0.451   1.198  1.00  0.00     0.002 C 
ATOM      9  C   UNL     1       3.189  -0.966   2.633  1.00  0.00     0.005 C 
ATOM     10  C   UNL     1       3.113   0.203   3.601  1.00  0.00     0.004 C 
ATOM     11  C   UNL     1       1.810   0.981   3.417  1.00  0.00    -0.004 C 
ATOM     12  C   UNL     1       1.666   1.521   1.958  1.00  0.00    -0.001 C 
ATOM     13  C   UNL     1       0.401   2.419   1.807  1.00  0.00     0.005 C 
ATOM     14  C   UNL     1       0.227   3.466   2.941  1.00  0.00     0.010 C 
ATOM     15  C   UNL     1       0.332   2.828   4.341  1.00  0.00    -0.003 C 
ATOM     16  C   UNL     1       1.721   2.158   4.388  1.00  0.00     0.001 C 
ATOM     17  C   UNL     1       2.003   1.906   5.863  1.00  0.00     0.007 C 
ATOM     18  C   UNL     1       1.242   3.003   6.614  1.00  0.00     0.032 C 
ATOM     19  C   UNL     1       0.419   3.776   5.564  1.00  0.00     0.120 C 
ATOM     20  C   UNL     1      -0.871   1.882   4.594  1.00  0.00     0.014 C 
ENDROOT
BRANCH  19  21
ATOM     21  O   UNL     1       1.055   5.010   5.252  1.00  0.00    -0.393 OA
ATOM     22  H   UNL     1       1.064   5.121   4.292  1.00  0.00     0.210 HD
ENDBRANCH  19  21
TORSDOF 1
ENDMDL
