MODEL 1
REMARK VINA RESULT:    -5.570      0.000      0.000
REMARK INTER + INTRA:          -5.733
REMARK INTER:                  -5.733
REMARK INTRA:                   0.000
REMARK UNBOUND:                 0.000
REMARK SMILES C[C@]12CCC(=O)C[C@@H]1CC[C@@H]1[C@@H]2CC[C@]2(C)[C@H](O)CC[C@@H]12
REMARK SMILES IDX 1 1 2 2 3 3 4 4 5 5 6 6 7 7 8 8 9 9 10 10 11 11 12 12 13 13
REMARK SMILES IDX 14 14 15 15 21 16 20 17 19 18 17 19 16 20 18 21
REMARK H PARENT 18 22
ROOT
ATOM      1  C   UNL     1       4.193   8.802  -4.408  1.00  0.00     0.012 C 
ATOM      2  C   UNL     1       4.224   7.640  -3.388  1.00  0.00    -0.026 C 
ATOM      3  C   UNL     1       2.752   7.183  -3.134  1.00  0.00     0.015 C 
ATOM      4  C   UNL     1       1.896   8.257  -2.452  1.00  0.00     0.076 C 
ATOM      5  C   UNL     1       2.547   8.734  -1.179  1.00  0.00     0.133 C 
ATOM      6  O   UNL     1       1.915   8.853  -0.130  1.00  0.00    -0.300 OA
ATOM      7  C   UNL     1       3.989   9.167  -1.288  1.00  0.00     0.079 C 
ATOM      8  C   UNL     1       4.789   8.064  -1.984  1.00  0.00     0.002 C 
ATOM      9  C   UNL     1       6.276   8.410  -2.002  1.00  0.00     0.005 C 
ATOM     10  C   UNL     1       7.075   7.213  -2.489  1.00  0.00     0.004 C 
ATOM     11  C   UNL     1       6.638   6.800  -3.895  1.00  0.00    -0.004 C 
ATOM     12  C   UNL     1       5.116   6.447  -3.941  1.00  0.00    -0.001 C 
ATOM     13  C   UNL     1       4.701   5.905  -5.343  1.00  0.00     0.005 C 
ATOM     14  C   UNL     1       5.667   4.835  -5.921  1.00  0.00     0.010 C 
ATOM     15  C   UNL     1       7.137   5.297  -5.880  1.00  0.00    -0.003 C 
ATOM     16  C   UNL     1       7.437   5.598  -4.397  1.00  0.00     0.001 C 
ATOM     17  C   UNL     1       8.955   5.638  -4.287  1.00  0.00     0.007 C 
ATOM     18  C   UNL     1       9.465   4.699  -5.384  1.00  0.00     0.032 C 
ATOM     19  C   UNL     1       8.234   4.251  -6.198  1.00  0.00     0.120 C 
ATOM     20  C   UNL     1       7.357   6.484  -6.856  1.00  0.00     0.014 C 
ENDROOT
BRANCH  19  21
ATOM     21  O   UNL     1       7.853   2.931  -5.825  1.00  0.00    -0.393 OA
ATOM     22  H   UNL     1       8.603   2.503  -5.391  1.00  0.00     0.210 HD
ENDBRANCH  19  21
TORSDOF 1
ENDMDL
MODEL 2
REMARK VINA RESULT:    -5.493      8.455     11.083
REMARK INTER + INTRA:          -5.654
REMARK INTER:                  -5.654
REMARK INTRA:                   0.000
REMARK UNBOUND:                 0.000
REMARK SMILES C[C@]12CCC(=O)C[C@@H]1CC[C@@H]1[C@@H]2CC[C@]2(C)[C@H](O)CC[C@@H]12
REMARK SMILES IDX 1 1 2 2 3 3 4 4 5 5 6 6 7 7 8 8 9 9 10 10 11 11 12 12 13 13
REMARK SMILES IDX 14 14 15 15 21 16 20 17 19 18 17 19 16 20 18 21
REMARK H PARENT 18 22
ROOT
ATOM      1  C   UNL     1       0.528  -0.537   0.912  1.00  0.00     0.012 C 
ATOM      2  C   UNL     1       1.804   0.336   0.889  1.00  0.00    -0.026 C 
ATOM      3  C   UNL     1       1.976   0.897  -0.559  1.00  0.00     0.015 C 
ATOM      4  C   UNL     1       2.251  -0.194  -1.600  1.00  0.00     0.076 C 
ATOM      5  C   UNL     1       3.434  -1.036  -1.196  1.00  0.00     0.133 C 
ATOM      6  O   UNL     1       4.331  -1.322  -1.989  1.00  0.00    -0.300 OA
ATOM      7  C   UNL     1       3.404  -1.604   0.202  1.00  0.00     0.079 C 
ATOM      8  C   UNL     1       3.115  -0.474   1.192  1.00  0.00     0.002 C 
ATOM      9  C   UNL     1       3.199  -0.986   2.628  1.00  0.00     0.005 C 
ATOM     10  C   UNL     1       3.135   0.184   3.595  1.00  0.00     0.004 C 
ATOM     11  C   UNL     1       1.835   0.969   3.416  1.00  0.00    -0.004 C 
ATOM     12  C   UNL     1       1.687   1.508   1.956  1.00  0.00    -0.001 C 
ATOM     13  C   UNL     1       0.427   2.413   1.810  1.00  0.00     0.005 C 
ATOM     14  C   UNL     1       0.264   3.463   2.943  1.00  0.00     0.010 C 
ATOM     15  C   UNL     1       0.373   2.827   4.343  1.00  0.00    -0.003 C 
ATOM     16  C   UNL     1       1.758   2.149   4.385  1.00  0.00     0.001 C 
ATOM     17  C   UNL     1       2.046   1.898   5.859  1.00  0.00     0.007 C 
ATOM     18  C   UNL     1       1.295   3.000   6.612  1.00  0.00     0.032 C 
ATOM     19  C   UNL     1       0.471   3.776   5.564  1.00  0.00     0.120 C 
ATOM     20  C   UNL     1      -0.834   1.888   4.605  1.00  0.00     0.014 C 
ENDROOT
BRANCH  19  21
ATOM     21  O   UNL     1       1.113   5.007   5.247  1.00  0.00    -0.393 OA
ATOM     22  H   UNL     1       0.460   5.606   4.860  1.00  0.00     0.210 HD
ENDBRANCH  19  21
TORSDOF 1
ENDMDL
MODEL 3
REMARK VINA RESULT:    -5.432      8.597     10.888
REMARK INTER + INTRA:          -5.591
REMARK INTER:                  -5.591
REMARK INTRA:                   0.000
REMARK UNBOUND:                 0.000
REMARK SMILES C[C@]12CCC(=O)C[C@@H]1CC[C@@H]1[C@@H]2CC[C@]2(C)[C@H](O)CC[C@@H]12
REMARK SMILES IDX 1 1 2 2 3 3 4 4 5 5 6 6 7 7 8 8 9 9 10 10 11 11 12 12 13 13
REMARK SMILES IDX 14 14 15 15 21 16 20 17 19 18 17 19 16 20 18 21
REMARK H PARENT 18 22
ROOT
ATOM      1  C   UNL     1      -1.071   2.277   2.151  1.00  0.00     0.012 C 
ATOM      2  C   UNL     1       0.360   2.844   1.998  1.00  0.00    -0.026 C 
ATOM      3  C   UNL     1       0.243   4.315   1.489  1.00  0.00     0.015 C 
ATOM      4  C   UNL     1      -0.353   4.421   0.080  1.00  0.00     0.076 C 
ATOM      5  C   UNL     1       0.417   3.565  -0.894  1.00  0.00     0.133 C 
ATOM      6  O   UNL     1       0.770   3.988  -1.994  1.00  0.00    -0.300 OA
ATOM      7  C   UNL     1       0.632   2.126  -0.493  1.00  0.00     0.079 C 
ATOM      8  C   UNL     1       1.215   2.085   0.921  1.00  0.00     0.002 C 
ATOM      9  C   UNL     1       1.563   0.651   1.316  1.00  0.00     0.005 C 
ATOM     10  C   UNL     1       2.343   0.653   2.620  1.00  0.00     0.004 C 
ATOM     11  C   UNL     1       1.529   1.300   3.741  1.00  0.00    -0.004 C 
ATOM     12  C   UNL     1       1.131   2.769   3.386  1.00  0.00    -0.001 C 
ATOM     13  C   UNL     1       0.413   3.467   4.581  1.00  0.00     0.005 C 
ATOM     14  C   UNL     1       1.117   3.264   5.951  1.00  0.00     0.010 C 
ATOM     15  C   UNL     1       1.420   1.779   6.233  1.00  0.00    -0.003 C 
ATOM     16  C   UNL     1       2.303   1.306   5.060  1.00  0.00     0.001 C 
ATOM     17  C   UNL     1       2.946   0.008   5.529  1.00  0.00     0.007 C 
ATOM     18  C   UNL     1       3.048   0.136   7.053  1.00  0.00     0.032 C 
ATOM     19  C   UNL     1       2.329   1.443   7.442  1.00  0.00     0.120 C 
ATOM     20  C   UNL     1       0.101   0.987   6.433  1.00  0.00     0.014 C 
ENDROOT
BRANCH  19  21
ATOM     21  O   UNL     1       3.281   2.467   7.709  1.00  0.00    -0.393 OA
ATOM     22  H   UNL     1       2.880   3.323   7.505  1.00  0.00     0.210 HD
ENDBRANCH  19  21
TORSDOF 1
ENDMDL
MODEL 4
REMARK VINA RESULT:    -5.415      7.985      9.908
REMARK INTER + INTRA:          -5.573
REMARK INTER:                  -5.573
REMARK INTRA:                   0.000
REMARK UNBOUND:                 0.000
REMARK SMILES C[C@]12CCC(=O)C[C@@H]1CC[C@@H]1[C@@H]2CC[C@]2(C)[C@H](O)CC[C@@H]12
REMARK SMILES IDX 1 1 2 2 3 3 4 4 5 5 6 6 7 7 8 8 9 9 10 10 11 11 12 12 13 13
REMARK SMILES IDX 14 14 15 15 21 16 20 17 19 18 17 19 16 20 18 21
REMARK H PARENT 18 22
ROOT
ATOM      1  C   UNL     1       0.204   0.707   4.354  1.00  0.00     0.012 C 
ATOM      2  C   UNL     1       1.344   1.732   4.152  1.00  0.00    -0.026 C 
ATOM      3  C   UNL     1       2.661   1.102   4.706  1.00  0.00     0.015 C 
ATOM      4  C   UNL     1       2.629   0.872   6.222  1.00  0.00     0.076 C 
ATOM      5  C   UNL     1       2.285   2.146   6.950  1.00  0.00     0.133 C 
ATOM      6  O   UNL     1       2.919   2.525   7.934  1.00  0.00    -0.300 OA
ATOM      7  C   UNL     1       1.050   2.873   6.477  1.00  0.00     0.079 C 
ATOM      8  C   UNL     1       1.133   3.062   4.961  1.00  0.00     0.002 C 
ATOM      9  C   UNL     1      -0.040   3.902   4.461  1.00  0.00     0.005 C 
ATOM     10  C   UNL     1       0.177   4.269   3.002  1.00  0.00     0.004 C 
ATOM     11  C   UNL     1       0.302   3.014   2.137  1.00  0.00    -0.004 C 
ATOM     12  C   UNL     1       1.481   2.104   2.613  1.00  0.00    -0.001 C 
ATOM     13  C   UNL     1       1.686   0.893   1.654  1.00  0.00     0.005 C 
ATOM     14  C   UNL     1       1.680   1.268   0.147  1.00  0.00     0.010 C 
ATOM     15  C   UNL     1       0.453   2.119  -0.235  1.00  0.00    -0.003 C 
ATOM     16  C   UNL     1       0.519   3.369   0.666  1.00  0.00     0.001 C 
ATOM     17  C   UNL     1      -0.412   4.388   0.021  1.00  0.00     0.007 C 
ATOM     18  C   UNL     1      -0.394   4.060  -1.475  1.00  0.00     0.032 C 
ATOM     19  C   UNL     1       0.431   2.769  -1.641  1.00  0.00     0.120 C 
ATOM     20  C   UNL     1      -0.846   1.280  -0.112  1.00  0.00     0.014 C 
ENDROOT
BRANCH  19  21
ATOM     21  O   UNL     1       1.736   3.078  -2.119  1.00  0.00    -0.393 OA
ATOM     22  H   UNL     1       2.182   3.633  -1.464  1.00  0.00     0.210 HD
ENDBRANCH  19  21
TORSDOF 1
ENDMDL
MODEL 5
REMARK VINA RESULT:    -5.396      8.177      9.265
REMARK INTER + INTRA:          -5.554
REMARK INTER:                  -5.554
REMARK INTRA:                   0.000
REMARK UNBOUND:                 0.000
REMARK SMILES C[C@]12CCC(=O)C[C@@H]1CC[C@@H]1[C@@H]2CC[C@]2(C)[C@H](O)CC[C@@H]12
REMARK SMILES IDX 1 1 2 2 3 3 4 4 5 5 6 6 7 7 8 8 9 9 10 10 11 11 12 12 13 13
REMARK SMILES IDX 14 14 15 15 21 16 20 17 19 18 17 19 16 20 18 21
REMARK H PARENT 18 22
ROOT
ATOM      1  C   UNL     1       0.218   0.608   3.655  1.00  0.00     0.012 C 
ATOM      2  C   UNL     1       1.378   1.546   3.249  1.00  0.00    -0.026 C 
ATOM      3  C   UNL     1       2.205   1.872   4.533  1.00  0.00     0.015 C 
ATOM      4  C   UNL     1       1.417   2.680   5.570  1.00  0.00     0.076 C 
ATOM      5  C   UNL     1       0.847   3.933   4.954  1.00  0.00     0.133 C 
ATOM      6  O   UNL     1       0.941   5.029   5.506  1.00  0.00    -0.300 OA
ATOM      7  C   UNL     1       0.058   3.752   3.681  1.00  0.00     0.079 C 
ATOM      8  C   UNL     1       0.889   2.931   2.692  1.00  0.00     0.002 C 
ATOM      9  C   UNL     1       0.175   2.831   1.346  1.00  0.00     0.005 C 
ATOM     10  C   UNL     1       1.106   2.213   0.317  1.00  0.00     0.004 C 
ATOM     11  C   UNL     1       1.553   0.817   0.753  1.00  0.00    -0.004 C 
ATOM     12  C   UNL     1       2.279   0.855   2.137  1.00  0.00    -0.001 C 
ATOM     13  C   UNL     1       2.845  -0.546   2.519  1.00  0.00     0.005 C 
ATOM     14  C   UNL     1       3.607  -1.259   1.369  1.00  0.00     0.010 C 
ATOM     15  C   UNL     1       2.788  -1.291   0.063  1.00  0.00    -0.003 C 
ATOM     16  C   UNL     1       2.489   0.184  -0.275  1.00  0.00     0.001 C 
ATOM     17  C   UNL     1       2.069   0.190  -1.739  1.00  0.00     0.007 C 
ATOM     18  C   UNL     1       2.797  -0.999  -2.374  1.00  0.00     0.032 C 
ATOM     19  C   UNL     1       3.506  -1.752  -1.230  1.00  0.00     0.120 C 
ATOM     20  C   UNL     1       1.542  -2.200   0.230  1.00  0.00     0.014 C 
ENDROOT
BRANCH  19  21
ATOM     21  O   UNL     1       4.895  -1.440  -1.224  1.00  0.00    -0.393 OA
ATOM     22  H   UNL     1       5.110  -1.001  -0.389  1.00  0.00     0.210 HD
ENDBRANCH  19  21
TORSDOF 1
ENDMDL
MODEL 6
REMARK VINA RESULT:    -5.353      8.294      9.731
REMARK INTER + INTRA:          -5.510
REMARK INTER:                  -5.510
REMARK INTRA:                   0.000
REMARK UNBOUND:                 0.000
REMARK SMILES C[C@]12CCC(=O)C[C@@H]1CC[C@@H]1[C@@H]2CC[C@]2(C)[C@H](O)CC[C@@H]12
REMARK SMILES IDX 1 1 2 2 3 3 4 4 5 5 6 6 7 7 8 8 9 9 10 10 11 11 12 12 13 13
REMARK SMILES IDX 14 14 15 15 21 16 20 17 19 18 17 19 16 20 18 21
REMARK H PARENT 18 22
ROOT
ATOM      1  C   UNL     1      -1.637   2.996   3.205  1.00  0.00     0.012 C 
ATOM      2  C   UNL     1      -0.319   3.744   2.896  1.00  0.00    -0.026 C 
ATOM      3  C   UNL     1      -0.270   5.021   3.795  1.00  0.00     0.015 C 
ATOM      4  C   UNL     1      -1.366   6.039   3.458  1.00  0.00     0.076 C 
ATOM      5  C   UNL     1      -1.332   6.399   1.994  1.00  0.00     0.133 C 
ATOM      6  O   UNL     1      -1.393   7.566   1.609  1.00  0.00    -0.300 OA
ATOM      7  C   UNL     1      -1.335   5.244   1.022  1.00  0.00     0.079 C 
ATOM      8  C   UNL     1      -0.232   4.259   1.415  1.00  0.00     0.002 C 
ATOM      9  C   UNL     1      -0.121   3.139   0.384  1.00  0.00     0.005 C 
ATOM     10  C   UNL     1       1.117   2.304   0.665  1.00  0.00     0.004 C 
ATOM     11  C   UNL     1       1.056   1.693   2.066  1.00  0.00    -0.004 C 
ATOM     12  C   UNL     1       0.927   2.796   3.166  1.00  0.00    -0.001 C 
ATOM     13  C   UNL     1       0.994   2.180   4.596  1.00  0.00     0.005 C 
ATOM     14  C   UNL     1       2.142   1.153   4.793  1.00  0.00     0.010 C 
ATOM     15  C   UNL     1       2.154   0.077   3.689  1.00  0.00    -0.003 C 
ATOM     16  C   UNL     1       2.295   0.848   2.360  1.00  0.00     0.001 C 
ATOM     17  C   UNL     1       2.729  -0.187   1.331  1.00  0.00     0.007 C 
ATOM     18  C   UNL     1       3.505  -1.244   2.123  1.00  0.00     0.032 C 
ATOM     19  C   UNL     1       3.377  -0.871   3.613  1.00  0.00     0.120 C 
ATOM     20  C   UNL     1       0.897  -0.825   3.801  1.00  0.00     0.014 C 
ENDROOT
BRANCH  19  21
ATOM     21  O   UNL     1       4.575  -0.251   4.069  1.00  0.00    -0.393 OA
ATOM     22  H   UNL     1       4.822  -0.642   4.919  1.00  0.00     0.210 HD
ENDBRANCH  19  21
TORSDOF 1
ENDMDL
MODEL 7
REMARK VINA RESULT:    -5.321      7.641     10.469
REMARK INTER + INTRA:          -5.476
REMARK INTER:                  -5.476
REMARK INTRA:                   0.000
REMARK UNBOUND:                 0.000
REMARK SMILES C[C@]12CCC(=O)C[C@@H]1CC[C@@H]1[C@@H]2CC[C@]2(C)[C@H](O)CC[C@@H]12
REMARK SMILES IDX 1 1 2 2 3 3 4 4 5 5 6 6 7 7 8 8 9 9 10 10 11 11 12 12 13 13
REMARK SMILES IDX 14 14 15 15 21 16 20 17 19 18 17 19 16 20 18 21
REMARK H PARENT 18 22
ROOT
ATOM      1  C   UNL     1       0.387  -0.373   0.403  1.00  0.00     0.012 C 
ATOM      2  C   UNL     1       1.648   0.519   0.464  1.00  0.00    -0.026 C 
ATOM      3  C   UNL     1       2.336   0.476  -0.938  1.00  0.00     0.015 C 
ATOM      4  C   UNL     1       2.877  -0.912  -1.302  1.00  0.00     0.076 C 
ATOM      5  C   UNL     1       3.798  -1.429  -0.226  1.00  0.00     0.133 C 
ATOM      6  O   UNL     1       4.890  -1.931  -0.489  1.00  0.00    -0.300 OA
ATOM      7  C   UNL     1       3.259  -1.400   1.184  1.00  0.00     0.079 C 
ATOM      8  C   UNL     1       2.725   0.002   1.485  1.00  0.00     0.002 C 
ATOM      9  C   UNL     1       2.284   0.106   2.943  1.00  0.00     0.005 C 
ATOM     10  C   UNL     1       1.972   1.554   3.282  1.00  0.00     0.004 C 
ATOM     11  C   UNL     1       0.862   2.098   2.382  1.00  0.00    -0.004 C 
ATOM     12  C   UNL     1       1.252   2.003   0.871  1.00  0.00    -0.001 C 
ATOM     13  C   UNL     1       0.176   2.673  -0.036  1.00  0.00     0.005 C 
ATOM     14  C   UNL     1      -0.293   4.068   0.461  1.00  0.00     0.010 C 
ATOM     15  C   UNL     1      -0.706   4.047   1.946  1.00  0.00    -0.003 C 
ATOM     16  C   UNL     1       0.537   3.553   2.715  1.00  0.00     0.001 C 
ATOM     17  C   UNL     1       0.292   3.927   4.171  1.00  0.00     0.007 C 
ATOM     18  C   UNL     1      -0.598   5.174   4.124  1.00  0.00     0.032 C 
ATOM     19  C   UNL     1      -0.967   5.405   2.645  1.00  0.00     0.120 C 
ATOM     20  C   UNL     1      -1.988   3.194   2.138  1.00  0.00     0.014 C 
ENDROOT
BRANCH  19  21
ATOM     21  O   UNL     1      -0.178   6.458   2.101  1.00  0.00    -0.393 OA
ATOM     22  H   UNL     1      -0.664   6.863   1.369  1.00  0.00     0.210 HD
ENDBRANCH  19  21
TORSDOF 1
ENDMDL
MODEL 8
REMARK VINA RESULT:    -5.207      2.146      3.179
REMARK INTER + INTRA:          -5.360
REMARK INTER:                  -5.360
REMARK INTRA:                   0.000
REMARK UNBOUND:                 0.000
REMARK SMILES C[C@]12CCC(=O)C[C@@H]1CC[C@@H]1[C@@H]2CC[C@]2(C)[C@H](O)CC[C@@H]12
REMARK SMILES IDX 1 1 2 2 3 3 4 4 5 5 6 6 7 7 8 8 9 9 10 10 11 11 12 12 13 13
REMARK SMILES IDX 14 14 15 15 21 16 20 17 19 18 17 19 16 20 18 21
REMARK H PARENT 18 22
ROOT
ATOM      1  C   UNL     1       2.614  10.821  -3.552  1.00  0.00     0.012 C 
ATOM      2  C   UNL     1       2.712  10.049  -2.215  1.00  0.00    -0.026 C 
ATOM      3  C   UNL     1       1.262   9.845  -1.671  1.00  0.00     0.015 C 
ATOM      4  C   UNL     1       0.568  11.159  -1.294  1.00  0.00     0.076 C 
ATOM      5  C   UNL     1       1.408  11.951  -0.325  1.00  0.00     0.133 C 
ATOM      6  O   UNL     1       0.928  12.460   0.687  1.00  0.00    -0.300 OA
ATOM      7  C   UNL     1       2.846  12.182  -0.722  1.00  0.00     0.079 C 
ATOM      8  C   UNL     1       3.480  10.841  -1.097  1.00  0.00     0.002 C 
ATOM      9  C   UNL     1       4.970  11.015  -1.385  1.00  0.00     0.005 C 
ATOM     10  C   UNL     1       5.626   9.653  -1.533  1.00  0.00     0.004 C 
ATOM     11  C   UNL     1       4.984   8.858  -2.670  1.00  0.00    -0.004 C 
ATOM     12  C   UNL     1       3.450   8.660  -2.436  1.00  0.00    -0.001 C 
ATOM     13  C   UNL     1       2.823   7.743  -3.529  1.00  0.00     0.005 C 
ATOM     14  C   UNL     1       3.640   6.454  -3.822  1.00  0.00     0.010 C 
ATOM     15  C   UNL     1       5.127   6.758  -4.092  1.00  0.00    -0.003 C 
ATOM     16  C   UNL     1       5.637   7.485  -2.831  1.00  0.00     0.001 C 
ATOM     17  C   UNL     1       7.156   7.409  -2.901  1.00  0.00     0.007 C 
ATOM     18  C   UNL     1       7.461   6.123  -3.676  1.00  0.00     0.032 C 
ATOM     19  C   UNL     1       6.109   5.562  -4.162  1.00  0.00     0.120 C 
ATOM     20  C   UNL     1       5.285   7.543  -5.420  1.00  0.00     0.014 C 
ENDROOT
BRANCH  19  21
ATOM     21  O   UNL     1       5.703   4.475  -3.337  1.00  0.00    -0.393 OA
ATOM     22  H   UNL     1       4.758   4.561  -3.154  1.00  0.00     0.210 HD
ENDBRANCH  19  21
TORSDOF 1
ENDMDL
