MODEL 1
REMARK VINA RESULT:    -5.901      0.000      0.000
REMARK INTER + INTRA:          -6.237
REMARK INTER:                  -6.591
REMARK INTRA:                   0.353
REMARK UNBOUND:                 0.353
REMARK SMILES CC(C)(C)NC(=O)[C@@H]1CC[C@@H]2[C@H]3CC[C@@H]4NC(=O)C=C[C@@]4(C)[C@@H]3CC[C@]21C
REMARK SMILES IDX 6 1 7 2 5 3 8 5 26 6 25 7 11 8 24 9 12 10 10 11 9 12 23 13
REMARK SMILES IDX 13 14 21 15 14 16 15 17 20 18 16 19 19 20 17 21 18 22 27 23
REMARK SMILES IDX 22 24 2 26 1 27 3 28 4 29
REMARK H PARENT 5 4 16 25
ROOT
ATOM      1  C   UNL     1       0.992   8.914  -0.483  1.00  0.00     0.224 C 
ATOM      2  O   UNL     1       1.279   8.325   0.566  1.00  0.00    -0.275 OA
ATOM      3  N   UNL     1      -0.302   8.953  -0.924  1.00  0.00    -0.351 N 
ATOM      4  H   UNL     1      -0.535   9.651  -1.622  1.00  0.00     0.163 HD
ENDROOT
BRANCH   1   5
ATOM      5  C   UNL     1       2.046   9.761  -1.184  1.00  0.00     0.084 C 
ATOM      6  C   UNL     1       2.942   9.050  -2.232  1.00  0.00    -0.018 C 
ATOM      7  C   UNL     1       2.519   7.619  -2.530  1.00  0.00     0.008 C 
ATOM      8  C   UNL     1       4.254   9.196  -1.465  1.00  0.00    -0.001 C 
ATOM      9  C   UNL     1       3.430   6.970  -3.534  1.00  0.00     0.005 C 
ATOM     10  C   UNL     1       5.346   8.403  -2.237  1.00  0.00    -0.003 C 
ATOM     11  C   UNL     1       4.142  10.829  -1.187  1.00  0.00     0.005 C 
ATOM     12  C   UNL     1       2.548  11.160  -1.282  1.00  0.00     0.014 C 
ATOM     13  C   UNL     1       4.862   7.028  -2.991  1.00  0.00     0.004 C 
ATOM     14  C   UNL     1       6.483   7.903  -1.326  1.00  0.00     0.006 C 
ATOM     15  C   UNL     1       5.931   6.580  -4.034  1.00  0.00     0.009 C 
ATOM     16  C   UNL     1       7.662   7.535  -2.253  1.00  0.00     0.026 C 
ATOM     17  C   UNL     1       7.289   6.479  -3.263  1.00  0.00     0.092 C 
ATOM     18  C   UNL     1       5.808   5.132  -4.580  1.00  0.00    -0.012 C 
ATOM     19  N   UNL     1       8.367   6.129  -4.150  1.00  0.00    -0.349 N 
ATOM     20  C   UNL     1       6.798   4.693  -5.405  1.00  0.00     0.067 C 
ATOM     21  C   UNL     1       8.212   5.044  -5.004  1.00  0.00     0.243 C 
ATOM     22  O   UNL     1       9.176   4.478  -5.504  1.00  0.00    -0.270 OA
ATOM     23  C   UNL     1       3.199   9.825  -3.610  1.00  0.00     0.012 C 
ATOM     24  C   UNL     1       5.806   7.445  -5.322  1.00  0.00     0.018 C 
ATOM     25  H   UNL     1       9.329   6.268  -3.863  1.00  0.00     0.164 HD
ENDBRANCH   1   5
BRANCH   3  26
ATOM     26  C   UNL     1      -1.393   8.429  -0.062  1.00  0.00     0.032 C 
ATOM     27  C   UNL     1      -1.451   9.193   1.281  1.00  0.00     0.034 C 
ATOM     28  C   UNL     1      -2.729   8.639  -0.805  1.00  0.00     0.034 C 
ATOM     29  C   UNL     1      -1.241   6.920   0.234  1.00  0.00     0.034 C 
ENDBRANCH   3  26
TORSDOF 2
ENDMDL
MODEL 2
REMARK VINA RESULT:    -5.544      8.293     11.842
REMARK INTER + INTRA:          -5.839
REMARK INTER:                  -6.330
REMARK INTRA:                   0.491
REMARK UNBOUND:                 0.353
REMARK SMILES CC(C)(C)NC(=O)[C@@H]1CC[C@@H]2[C@H]3CC[C@@H]4NC(=O)C=C[C@@]4(C)[C@@H]3CC[C@]21C
REMARK SMILES IDX 6 1 7 2 5 3 8 5 26 6 25 7 11 8 24 9 12 10 10 11 9 12 23 13
REMARK SMILES IDX 13 14 21 15 14 16 15 17 20 18 16 19 19 20 17 21 18 22 27 23
REMARK SMILES IDX 22 24 2 26 1 27 3 28 4 29
REMARK H PARENT 5 4 16 25
ROOT
ATOM      1  C   UNL     1       2.249   1.338   7.432  1.00  0.00     0.224 C 
ATOM      2  O   UNL     1       1.450   0.978   8.304  1.00  0.00    -0.275 OA
ATOM      3  N   UNL     1       3.466   1.858   7.780  1.00  0.00    -0.351 N 
ATOM      4  H   UNL     1       4.180   1.891   7.061  1.00  0.00     0.163 HD
ENDROOT
BRANCH   1   5
ATOM      5  C   UNL     1       1.960   1.026   5.969  1.00  0.00     0.084 C 
ATOM      6  C   UNL     1       1.348   2.164   5.111  1.00  0.00    -0.018 C 
ATOM      7  C   UNL     1       1.276   3.503   5.831  1.00  0.00     0.008 C 
ATOM      8  C   UNL     1       0.004   1.486   4.859  1.00  0.00    -0.001 C 
ATOM      9  C   UNL     1       0.658   4.564   4.965  1.00  0.00     0.005 C 
ATOM     10  C   UNL     1      -0.912   2.506   4.124  1.00  0.00    -0.003 C 
ATOM     11  C   UNL     1       0.610   0.039   4.316  1.00  0.00     0.005 C 
ATOM     12  C   UNL     1       2.110  -0.050   4.951  1.00  0.00     0.014 C 
ATOM     13  C   UNL     1      -0.733   4.084   4.536  1.00  0.00     0.004 C 
ATOM     14  C   UNL     1      -2.411   2.260   4.380  1.00  0.00     0.006 C 
ATOM     15  C   UNL     1      -1.393   5.000   3.460  1.00  0.00     0.009 C 
ATOM     16  C   UNL     1      -3.178   3.033   3.285  1.00  0.00     0.026 C 
ATOM     17  C   UNL     1      -2.871   4.510   3.305  1.00  0.00     0.092 C 
ATOM     18  C   UNL     1      -1.627   6.483   3.855  1.00  0.00    -0.012 C 
ATOM     19  N   UNL     1      -3.562   5.253   2.284  1.00  0.00    -0.349 N 
ATOM     20  C   UNL     1      -2.301   7.263   2.967  1.00  0.00     0.067 C 
ATOM     21  C   UNL     1      -3.511   6.640   2.308  1.00  0.00     0.243 C 
ATOM     22  O   UNL     1      -4.339   7.324   1.720  1.00  0.00    -0.270 OA
ATOM     23  C   UNL     1       1.965   2.380   3.649  1.00  0.00     0.012 C 
ATOM     24  C   UNL     1      -0.457   5.117   2.221  1.00  0.00     0.018 C 
ATOM     25  H   UNL     1      -4.428   4.898   1.894  1.00  0.00     0.164 HD
ENDBRANCH   1   5
BRANCH   3  26
ATOM     26  C   UNL     1       3.898   1.840   9.201  1.00  0.00     0.032 C 
ATOM     27  C   UNL     1       5.340   2.379   9.347  1.00  0.00     0.034 C 
ATOM     28  C   UNL     1       2.948   2.755  10.000  1.00  0.00     0.034 C 
ATOM     29  C   UNL     1       3.836   0.425   9.822  1.00  0.00     0.034 C 
ENDBRANCH   3  26
TORSDOF 2
ENDMDL
MODEL 3
REMARK VINA RESULT:    -5.440      7.836      9.756
REMARK INTER + INTRA:          -5.723
REMARK INTER:                  -6.207
REMARK INTRA:                   0.484
REMARK UNBOUND:                 0.353
REMARK SMILES CC(C)(C)NC(=O)[C@@H]1CC[C@@H]2[C@H]3CC[C@@H]4NC(=O)C=C[C@@]4(C)[C@@H]3CC[C@]21C
REMARK SMILES IDX 6 1 7 2 5 3 8 5 26 6 25 7 11 8 24 9 12 10 10 11 9 12 23 13
REMARK SMILES IDX 13 14 21 15 14 16 15 17 20 18 16 19 19 20 17 21 18 22 27 23
REMARK SMILES IDX 22 24 2 26 1 27 3 28 4 29
REMARK H PARENT 5 4 16 25
ROOT
ATOM      1  C   UNL     1      -2.234   8.925   6.056  1.00  0.00     0.224 C 
ATOM      2  O   UNL     1      -1.590   9.741   5.386  1.00  0.00    -0.275 OA
ATOM      3  N   UNL     1      -2.452   9.142   7.389  1.00  0.00    -0.351 N 
ATOM      4  H   UNL     1      -3.188   8.605   7.833  1.00  0.00     0.163 HD
ENDROOT
BRANCH   1   5
ATOM      5  C   UNL     1      -2.947   7.773   5.360  1.00  0.00     0.084 C 
ATOM      6  C   UNL     1      -2.231   6.397   5.357  1.00  0.00    -0.018 C 
ATOM      7  C   UNL     1      -0.971   6.360   6.208  1.00  0.00     0.008 C 
ATOM      8  C   UNL     1      -2.002   6.325   3.849  1.00  0.00    -0.001 C 
ATOM      9  C   UNL     1      -0.306   5.013   6.155  1.00  0.00     0.005 C 
ATOM     10  C   UNL     1      -1.128   5.071   3.561  1.00  0.00    -0.003 C 
ATOM     11  C   UNL     1      -3.567   6.639   3.394  1.00  0.00     0.005 C 
ATOM     12  C   UNL     1      -4.218   7.435   4.662  1.00  0.00     0.014 C 
ATOM     13  C   UNL     1      -0.000   4.686   4.689  1.00  0.00     0.004 C 
ATOM     14  C   UNL     1      -0.286   5.207   2.278  1.00  0.00     0.006 C 
ATOM     15  C   UNL     1       0.496   3.223   4.478  1.00  0.00     0.009 C 
ATOM     16  C   UNL     1       0.170   3.782   1.896  1.00  0.00     0.026 C 
ATOM     17  C   UNL     1       0.974   3.126   2.991  1.00  0.00     0.092 C 
ATOM     18  C   UNL     1       1.796   2.814   5.220  1.00  0.00    -0.012 C 
ATOM     19  N   UNL     1       1.399   1.790   2.667  1.00  0.00    -0.349 N 
ATOM     20  C   UNL     1       2.299   1.576   4.956  1.00  0.00     0.067 C 
ATOM     21  C   UNL     1       2.297   1.145   3.508  1.00  0.00     0.243 C 
ATOM     22  O   UNL     1       2.965   0.193   3.125  1.00  0.00    -0.270 OA
ATOM     23  C   UNL     1      -3.130   5.112   5.684  1.00  0.00     0.012 C 
ATOM     24  C   UNL     1      -0.554   2.223   5.046  1.00  0.00     0.018 C 
ATOM     25  H   UNL     1       1.496   1.507   1.698  1.00  0.00     0.164 HD
ENDBRANCH   1   5
BRANCH   3  26
ATOM     26  C   UNL     1      -2.060  10.439   8.000  1.00  0.00     0.032 C 
ATOM     27  C   UNL     1      -3.063  11.553   7.622  1.00  0.00     0.034 C 
ATOM     28  C   UNL     1      -2.073  10.265   9.533  1.00  0.00     0.034 C 
ATOM     29  C   UNL     1      -0.642  10.887   7.581  1.00  0.00     0.034 C 
ENDBRANCH   3  26
TORSDOF 2
ENDMDL
MODEL 4
REMARK VINA RESULT:    -5.369     10.331     14.089
REMARK INTER + INTRA:          -5.643
REMARK INTER:                  -6.011
REMARK INTRA:                   0.368
REMARK UNBOUND:                 0.353
REMARK SMILES CC(C)(C)NC(=O)[C@@H]1CC[C@@H]2[C@H]3CC[C@@H]4NC(=O)C=C[C@@]4(C)[C@@H]3CC[C@]21C
REMARK SMILES IDX 6 1 7 2 5 3 8 5 26 6 25 7 11 8 24 9 12 10 10 11 9 12 23 13
REMARK SMILES IDX 13 14 21 15 14 16 15 17 20 18 16 19 19 20 17 21 18 22 27 23
REMARK SMILES IDX 22 24 2 26 1 27 3 28 4 29
REMARK H PARENT 5 4 16 25
ROOT
ATOM      1  C   UNL     1       4.147  -0.321   8.931  1.00  0.00     0.224 C 
ATOM      2  O   UNL     1       4.312   0.290   9.994  1.00  0.00    -0.275 OA
ATOM      3  N   UNL     1       5.223  -0.750   8.204  1.00  0.00    -0.351 N 
ATOM      4  H   UNL     1       5.055  -1.459   7.499  1.00  0.00     0.163 HD
ENDROOT
BRANCH   1   5
ATOM      5  C   UNL     1       2.747  -0.765   8.526  1.00  0.00     0.084 C 
ATOM      6  C   UNL     1       1.928   0.204   7.635  1.00  0.00    -0.018 C 
ATOM      7  C   UNL     1       2.721   1.409   7.150  1.00  0.00     0.008 C 
ATOM      8  C   UNL     1       0.841   0.510   8.663  1.00  0.00    -0.001 C 
ATOM      9  C   UNL     1       1.878   2.324   6.308  1.00  0.00     0.005 C 
ATOM     10  C   UNL     1      -0.071   1.623   8.074  1.00  0.00    -0.003 C 
ATOM     11  C   UNL     1       0.469  -1.065   9.033  1.00  0.00     0.005 C 
ATOM     12  C   UNL     1       1.806  -1.914   8.639  1.00  0.00     0.014 C 
ATOM     13  C   UNL     1       0.661   2.753   7.135  1.00  0.00     0.004 C 
ATOM     14  C   UNL     1      -0.752   2.478   9.158  1.00  0.00     0.006 C 
ATOM     15  C   UNL     1      -0.402   3.533   6.303  1.00  0.00     0.009 C 
ATOM     16  C   UNL     1      -1.918   3.219   8.468  1.00  0.00     0.026 C 
ATOM     17  C   UNL     1      -1.449   4.087   7.326  1.00  0.00     0.092 C 
ATOM     18  C   UNL     1       0.066   4.854   5.636  1.00  0.00    -0.012 C 
ATOM     19  N   UNL     1      -2.518   4.777   6.655  1.00  0.00    -0.349 N 
ATOM     20  C   UNL     1      -0.880   5.599   5.001  1.00  0.00     0.067 C 
ATOM     21  C   UNL     1      -2.207   5.746   5.709  1.00  0.00     0.243 C 
ATOM     22  O   UNL     1      -3.016   6.602   5.376  1.00  0.00    -0.270 OA
ATOM     23  C   UNL     1       1.136  -0.441   6.401  1.00  0.00     0.012 C 
ATOM     24  C   UNL     1      -0.853   2.674   5.085  1.00  0.00     0.018 C 
ATOM     25  H   UNL     1      -3.386   4.971   7.144  1.00  0.00     0.164 HD
ENDBRANCH   1   5
BRANCH   3  26
ATOM     26  C   UNL     1       6.592  -0.630   8.769  1.00  0.00     0.032 C 
ATOM     27  C   UNL     1       6.764  -1.549  10.000  1.00  0.00     0.034 C 
ATOM     28  C   UNL     1       7.595  -1.070   7.683  1.00  0.00     0.034 C 
ATOM     29  C   UNL     1       6.937   0.819   9.182  1.00  0.00     0.034 C 
ENDBRANCH   3  26
TORSDOF 2
ENDMDL
MODEL 5
REMARK VINA RESULT:    -5.231      9.082     11.814
REMARK INTER + INTRA:          -5.490
REMARK INTER:                  -6.199
REMARK INTRA:                   0.709
REMARK UNBOUND:                 0.353
REMARK SMILES CC(C)(C)NC(=O)[C@@H]1CC[C@@H]2[C@H]3CC[C@@H]4NC(=O)C=C[C@@]4(C)[C@@H]3CC[C@]21C
REMARK SMILES IDX 6 1 7 2 5 3 8 5 26 6 25 7 11 8 24 9 12 10 10 11 9 12 23 13
REMARK SMILES IDX 13 14 21 15 14 16 15 17 20 18 16 19 19 20 17 21 18 22 27 23
REMARK SMILES IDX 22 24 2 26 1 27 3 28 4 29
REMARK H PARENT 5 4 16 25
ROOT
ATOM      1  C   UNL     1       3.471   0.784   8.441  1.00  0.00     0.224 C 
ATOM      2  O   UNL     1       4.237   1.740   8.610  1.00  0.00    -0.275 OA
ATOM      3  N   UNL     1       3.919  -0.499   8.597  1.00  0.00    -0.351 N 
ATOM      4  H   UNL     1       3.221  -1.225   8.711  1.00  0.00     0.163 HD
ENDROOT
BRANCH   1   5
ATOM      5  C   UNL     1       1.982   1.037   8.247  1.00  0.00     0.084 C 
ATOM      6  C   UNL     1       1.458   1.094   6.789  1.00  0.00    -0.018 C 
ATOM      7  C   UNL     1       2.502   0.719   5.747  1.00  0.00     0.008 C 
ATOM      8  C   UNL     1       1.055   2.567   6.807  1.00  0.00    -0.001 C 
ATOM      9  C   UNL     1       1.951   0.810   4.352  1.00  0.00     0.005 C 
ATOM     10  C   UNL     1       0.624   2.959   5.366  1.00  0.00    -0.003 C 
ATOM     11  C   UNL     1       0.146   2.507   8.195  1.00  0.00     0.005 C 
ATOM     12  C   UNL     1       0.716   1.215   9.012  1.00  0.00     0.014 C 
ATOM     13  C   UNL     1       1.430   2.235   4.133  1.00  0.00     0.004 C 
ATOM     14  C   UNL     1       0.826   4.456   5.064  1.00  0.00     0.006 C 
ATOM     15  C   UNL     1       0.639   2.401   2.800  1.00  0.00     0.009 C 
ATOM     16  C   UNL     1      -0.019   4.773   3.812  1.00  0.00     0.026 C 
ATOM     17  C   UNL     1       0.382   3.934   2.623  1.00  0.00     0.092 C 
ATOM     18  C   UNL     1       1.410   2.091   1.489  1.00  0.00    -0.012 C 
ATOM     19  N   UNL     1      -0.402   4.198   1.445  1.00  0.00    -0.349 N 
ATOM     20  C   UNL     1       0.765   2.338   0.316  1.00  0.00     0.067 C 
ATOM     21  C   UNL     1      -0.017   3.629   0.238  1.00  0.00     0.243 C 
ATOM     22  O   UNL     1      -0.397   4.081  -0.835  1.00  0.00    -0.270 OA
ATOM     23  C   UNL     1       0.095   0.313   6.477  1.00  0.00     0.012 C 
ATOM     24  C   UNL     1      -0.539   1.383   2.756  1.00  0.00     0.018 C 
ATOM     25  H   UNL     1      -0.859   5.096   1.328  1.00  0.00     0.164 HD
ENDBRANCH   1   5
BRANCH   3  26
ATOM     26  C   UNL     1       5.284  -0.746   9.130  1.00  0.00     0.032 C 
ATOM     27  C   UNL     1       5.314  -2.024  10.000  1.00  0.00     0.034 C 
ATOM     28  C   UNL     1       6.235  -0.944   7.932  1.00  0.00     0.034 C 
ATOM     29  C   UNL     1       5.814   0.437   9.972  1.00  0.00     0.034 C 
ENDBRANCH   3  26
TORSDOF 2
ENDMDL
MODEL 6
REMARK VINA RESULT:    -5.146      8.602     10.406
REMARK INTER + INTRA:          -5.394
REMARK INTER:                  -5.803
REMARK INTRA:                   0.409
REMARK UNBOUND:                 0.353
REMARK SMILES CC(C)(C)NC(=O)[C@@H]1CC[C@@H]2[C@H]3CC[C@@H]4NC(=O)C=C[C@@]4(C)[C@@H]3CC[C@]21C
REMARK SMILES IDX 6 1 7 2 5 3 8 5 26 6 25 7 11 8 24 9 12 10 10 11 9 12 23 13
REMARK SMILES IDX 13 14 21 15 14 16 15 17 20 18 16 19 19 20 17 21 18 22 27 23
REMARK SMILES IDX 22 24 2 26 1 27 3 28 4 29
REMARK H PARENT 5 4 16 25
ROOT
ATOM      1  C   UNL     1       1.408   1.869   6.856  1.00  0.00     0.224 C 
ATOM      2  O   UNL     1       1.964   2.968   6.751  1.00  0.00    -0.275 OA
ATOM      3  N   UNL     1       1.660   1.066   7.934  1.00  0.00    -0.351 N 
ATOM      4  H   UNL     1       1.004   0.314   8.118  1.00  0.00     0.163 HD
ENDROOT
BRANCH   1   5
ATOM      5  C   UNL     1       0.299   1.488   5.883  1.00  0.00     0.084 C 
ATOM      6  C   UNL     1       0.704   0.654   4.640  1.00  0.00    -0.018 C 
ATOM      7  C   UNL     1       2.153   0.190   4.659  1.00  0.00     0.008 C 
ATOM      8  C   UNL     1       0.375   1.723   3.601  1.00  0.00    -0.001 C 
ATOM      9  C   UNL     1       2.499  -0.595   3.425  1.00  0.00     0.005 C 
ATOM     10  C   UNL     1       0.848   1.199   2.215  1.00  0.00    -0.003 C 
ATOM     11  C   UNL     1      -1.165   2.048   4.129  1.00  0.00     0.005 C 
ATOM     12  C   UNL     1      -1.175   1.586   5.694  1.00  0.00     0.014 C 
ATOM     13  C   UNL     1       2.208   0.281   2.201  1.00  0.00     0.004 C 
ATOM     14  C   UNL     1       1.199   2.332   1.232  1.00  0.00     0.006 C 
ATOM     15  C   UNL     1       2.323  -0.493   0.852  1.00  0.00     0.009 C 
ATOM     16  C   UNL     1       1.224   1.701  -0.178  1.00  0.00     0.026 C 
ATOM     17  C   UNL     1       2.225   0.578  -0.285  1.00  0.00     0.092 C 
ATOM     18  C   UNL     1       3.702  -1.126   0.526  1.00  0.00    -0.012 C 
ATOM     19  N   UNL     1       2.258  -0.038  -1.585  1.00  0.00    -0.349 N 
ATOM     20  C   UNL     1       3.845  -1.708  -0.696  1.00  0.00     0.067 C 
ATOM     21  C   UNL     1       3.259  -0.958  -1.870  1.00  0.00     0.243 C 
ATOM     22  O   UNL     1       3.565  -1.237  -3.022  1.00  0.00    -0.270 OA
ATOM     23  C   UNL     1      -0.243  -0.579   4.256  1.00  0.00     0.012 C 
ATOM     24  C   UNL     1       1.373  -1.727   0.870  1.00  0.00     0.018 C 
ATOM     25  H   UNL     1       1.957   0.481  -2.402  1.00  0.00     0.164 HD
ENDBRANCH   1   5
BRANCH   3  26
ATOM     26  C   UNL     1       2.473   1.581   9.066  1.00  0.00     0.032 C 
ATOM     27  C   UNL     1       1.689   2.644   9.870  1.00  0.00     0.034 C 
ATOM     28  C   UNL     1       2.795   0.397  10.000  1.00  0.00     0.034 C 
ATOM     29  C   UNL     1       3.810   2.201   8.600  1.00  0.00     0.034 C 
ENDBRANCH   3  26
TORSDOF 2
ENDMDL
MODEL 7
REMARK VINA RESULT:    -5.029      8.375     11.719
REMARK INTER + INTRA:          -5.263
REMARK INTER:                  -5.922
REMARK INTRA:                   0.659
REMARK UNBOUND:                 0.353
REMARK SMILES CC(C)(C)NC(=O)[C@@H]1CC[C@@H]2[C@H]3CC[C@@H]4NC(=O)C=C[C@@]4(C)[C@@H]3CC[C@]21C
REMARK SMILES IDX 6 1 7 2 5 3 8 5 26 6 25 7 11 8 24 9 12 10 10 11 9 12 23 13
REMARK SMILES IDX 13 14 21 15 14 16 15 17 20 18 16 19 19 20 17 21 18 22 27 23
REMARK SMILES IDX 22 24 2 26 1 27 3 28 4 29
REMARK H PARENT 5 4 16 25
ROOT
ATOM      1  C   UNL     1       2.483   0.404   7.582  1.00  0.00     0.224 C 
ATOM      2  O   UNL     1       1.674   0.197   8.495  1.00  0.00    -0.275 OA
ATOM      3  N   UNL     1       3.668   1.038   7.838  1.00  0.00    -0.351 N 
ATOM      4  H   UNL     1       4.400   0.953   7.141  1.00  0.00     0.163 HD
ENDROOT
BRANCH   1   5
ATOM      5  C   UNL     1       2.247  -0.214   6.211  1.00  0.00     0.084 C 
ATOM      6  C   UNL     1       1.880   0.750   5.053  1.00  0.00    -0.018 C 
ATOM      7  C   UNL     1       1.972   2.222   5.429  1.00  0.00     0.008 C 
ATOM      8  C   UNL     1       0.465   0.222   4.829  1.00  0.00    -0.001 C 
ATOM      9  C   UNL     1       1.588   3.112   4.281  1.00  0.00     0.005 C 
ATOM     10  C   UNL     1      -0.227   1.146   3.786  1.00  0.00    -0.003 C 
ATOM     11  C   UNL     1       0.870  -1.383   4.703  1.00  0.00     0.005 C 
ATOM     12  C   UNL     1       2.292  -1.518   5.492  1.00  0.00     0.014 C 
ATOM     13  C   UNL     1       0.171   2.737   3.835  1.00  0.00     0.004 C 
ATOM     14  C   UNL     1      -1.759   1.178   3.936  1.00  0.00     0.006 C 
ATOM     15  C   UNL     1      -0.263   3.442   2.514  1.00  0.00     0.009 C 
ATOM     16  C   UNL     1      -2.320   1.756   2.619  1.00  0.00     0.026 C 
ATOM     17  C   UNL     1      -1.786   3.137   2.326  1.00  0.00     0.092 C 
ATOM     18  C   UNL     1      -0.285   4.994   2.526  1.00  0.00    -0.012 C 
ATOM     19  N   UNL     1      -2.281   3.693   1.095  1.00  0.00    -0.349 N 
ATOM     20  C   UNL     1      -0.767   5.617   1.416  1.00  0.00     0.067 C 
ATOM     21  C   UNL     1      -2.014   5.024   0.800  1.00  0.00     0.243 C 
ATOM     22  O   UNL     1      -2.682   5.648  -0.013  1.00  0.00    -0.270 OA
ATOM     23  C   UNL     1       2.619   0.514   3.652  1.00  0.00     0.012 C 
ATOM     24  C   UNL     1       0.761   3.122   1.385  1.00  0.00     0.018 C 
ATOM     25  H   UNL     1      -3.165   3.376   0.711  1.00  0.00     0.164 HD
ENDBRANCH   1   5
BRANCH   3  26
ATOM     26  C   UNL     1       4.062   1.332   9.240  1.00  0.00     0.032 C 
ATOM     27  C   UNL     1       3.007   2.223   9.935  1.00  0.00     0.034 C 
ATOM     28  C   UNL     1       4.151  -0.007  10.000  1.00  0.00     0.034 C 
ATOM     29  C   UNL     1       5.437   2.030   9.335  1.00  0.00     0.034 C 
ENDBRANCH   3  26
TORSDOF 2
ENDMDL
MODEL 8
REMARK VINA RESULT:    -5.012      7.034      9.859
REMARK INTER + INTRA:          -5.245
REMARK INTER:                  -5.593
REMARK INTRA:                   0.348
REMARK UNBOUND:                 0.353
REMARK SMILES CC(C)(C)NC(=O)[C@@H]1CC[C@@H]2[C@H]3CC[C@@H]4NC(=O)C=C[C@@]4(C)[C@@H]3CC[C@]21C
REMARK SMILES IDX 6 1 7 2 5 3 8 5 26 6 25 7 11 8 24 9 12 10 10 11 9 12 23 13
REMARK SMILES IDX 13 14 21 15 14 16 15 17 20 18 16 19 19 20 17 21 18 22 27 23
REMARK SMILES IDX 22 24 2 26 1 27 3 28 4 29
REMARK H PARENT 5 4 16 25
ROOT
ATOM      1  C   UNL     1       0.770   2.651  -2.114  1.00  0.00     0.224 C 
ATOM      2  O   UNL     1       1.971   2.749  -2.392  1.00  0.00    -0.275 OA
ATOM      3  N   UNL     1      -0.137   3.527  -2.644  1.00  0.00    -0.351 N 
ATOM      4  H   UNL     1      -1.115   3.261  -2.611  1.00  0.00     0.163 HD
ENDROOT
BRANCH   1   5
ATOM      5  C   UNL     1       0.273   1.441  -1.335  1.00  0.00     0.084 C 
ATOM      6  C   UNL     1       0.271   1.547   0.212  1.00  0.00    -0.018 C 
ATOM      7  C   UNL     1       0.620   2.935   0.731  1.00  0.00     0.008 C 
ATOM      8  C   UNL     1       1.327   0.474   0.461  1.00  0.00    -0.001 C 
ATOM      9  C   UNL     1       0.623   2.980   2.233  1.00  0.00     0.005 C 
ATOM     10  C   UNL     1       1.655   0.474   1.982  1.00  0.00    -0.003 C 
ATOM     11  C   UNL     1       0.624  -0.715  -0.460  1.00  0.00     0.005 C 
ATOM     12  C   UNL     1      -0.314   0.086  -1.528  1.00  0.00     0.014 C 
ATOM     13  C   UNL     1       1.614   1.927   2.743  1.00  0.00     0.004 C 
ATOM     14  C   UNL     1       3.080  -0.025   2.289  1.00  0.00     0.006 C 
ATOM     15  C   UNL     1       1.554   1.725   4.288  1.00  0.00     0.009 C 
ATOM     16  C   UNL     1       3.110  -0.376   3.793  1.00  0.00     0.026 C 
ATOM     17  C   UNL     1       2.762   0.806   4.664  1.00  0.00     0.092 C 
ATOM     18  C   UNL     1       1.860   2.968   5.166  1.00  0.00    -0.012 C 
ATOM     19  N   UNL     1       2.768   0.502   6.070  1.00  0.00    -0.349 N 
ATOM     20  C   UNL     1       1.919   2.778   6.513  1.00  0.00     0.067 C 
ATOM     21  C   UNL     1       2.646   1.539   6.985  1.00  0.00     0.243 C 
ATOM     22  O   UNL     1       2.998   1.413   8.151  1.00  0.00    -0.270 OA
ATOM     23  C   UNL     1      -1.031   1.008   0.974  1.00  0.00     0.012 C 
ATOM     24  C   UNL     1       0.103   1.352   4.714  1.00  0.00     0.018 C 
ATOM     25  H   UNL     1       3.325  -0.269   6.423  1.00  0.00     0.164 HD
ENDBRANCH   1   5
BRANCH   3  26
ATOM     26  C   UNL     1       0.292   4.496  -3.685  1.00  0.00     0.032 C 
ATOM     27  C   UNL     1       0.931   3.767  -4.890  1.00  0.00     0.034 C 
ATOM     28  C   UNL     1      -0.959   5.253  -4.176  1.00  0.00     0.034 C 
ATOM     29  C   UNL     1       1.301   5.536  -3.147  1.00  0.00     0.034 C 
ENDBRANCH   3  26
TORSDOF 2
ENDMDL
MODEL 9
REMARK VINA RESULT:    -4.993      7.623     10.448
REMARK INTER + INTRA:          -5.224
REMARK INTER:                  -5.583
REMARK INTRA:                   0.359
REMARK UNBOUND:                 0.353
REMARK SMILES CC(C)(C)NC(=O)[C@@H]1CC[C@@H]2[C@H]3CC[C@@H]4NC(=O)C=C[C@@]4(C)[C@@H]3CC[C@]21C
REMARK SMILES IDX 6 1 7 2 5 3 8 5 26 6 25 7 11 8 24 9 12 10 10 11 9 12 23 13
REMARK SMILES IDX 13 14 21 15 14 16 15 17 20 18 16 19 19 20 17 21 18 22 27 23
REMARK SMILES IDX 22 24 2 26 1 27 3 28 4 29
REMARK H PARENT 5 4 16 25
ROOT
ATOM      1  C   UNL     1       1.871   0.854  -2.658  1.00  0.00     0.224 C 
ATOM      2  O   UNL     1       3.089   0.876  -2.868  1.00  0.00    -0.275 OA
ATOM      3  N   UNL     1       1.025   1.627  -3.406  1.00  0.00    -0.351 N 
ATOM      4  H   UNL     1       0.039   1.389  -3.388  1.00  0.00     0.163 HD
ENDROOT
BRANCH   1   5
ATOM      5  C   UNL     1       1.289  -0.174  -1.696  1.00  0.00     0.084 C 
ATOM      6  C   UNL     1       1.055   0.280  -0.232  1.00  0.00    -0.018 C 
ATOM      7  C   UNL     1       1.293   1.766  -0.006  1.00  0.00     0.008 C 
ATOM      8  C   UNL     1       2.086  -0.650   0.404  1.00  0.00    -0.001 C 
ATOM      9  C   UNL     1       1.073   2.150   1.430  1.00  0.00     0.005 C 
ATOM     10  C   UNL     1       2.185  -0.287   1.913  1.00  0.00    -0.003 C 
ATOM     11  C   UNL     1       1.553  -2.053  -0.305  1.00  0.00     0.005 C 
ATOM     12  C   UNL     1       0.767  -1.568  -1.650  1.00  0.00     0.014 C 
ATOM     13  C   UNL     1       2.000   1.296   2.303  1.00  0.00     0.004 C 
ATOM     14  C   UNL     1       3.558  -0.624   2.523  1.00  0.00     0.006 C 
ATOM     15  C   UNL     1       1.715   1.446   3.829  1.00  0.00     0.009 C 
ATOM     16  C   UNL     1       3.372  -0.624   4.056  1.00  0.00     0.026 C 
ATOM     17  C   UNL     1       2.874   0.703   4.573  1.00  0.00     0.092 C 
ATOM     18  C   UNL     1       1.861   2.870   4.429  1.00  0.00    -0.012 C 
ATOM     19  N   UNL     1       2.677   0.726   5.998  1.00  0.00    -0.349 N 
ATOM     20  C   UNL     1       1.724   2.993   5.777  1.00  0.00     0.067 C 
ATOM     21  C   UNL     1       2.399   1.936   6.621  1.00  0.00     0.243 C 
ATOM     22  O   UNL     1       2.576   2.096   7.821  1.00  0.00    -0.270 OA
ATOM     23  C   UNL     1      -0.333  -0.144   0.444  1.00  0.00     0.012 C 
ATOM     24  C   UNL     1       0.226   1.100   4.123  1.00  0.00     0.018 C 
ATOM     25  H   UNL     1       3.192   0.087   6.594  1.00  0.00     0.164 HD
ENDBRANCH   1   5
BRANCH   3  26
ATOM     26  C   UNL     1       1.547   2.369  -4.583  1.00  0.00     0.032 C 
ATOM     27  C   UNL     1       2.157   1.400  -5.621  1.00  0.00     0.034 C 
ATOM     28  C   UNL     1       0.366   3.113  -5.239  1.00  0.00     0.034 C 
ATOM     29  C   UNL     1       2.617   3.415  -4.196  1.00  0.00     0.034 C 
ENDBRANCH   3  26
TORSDOF 2
ENDMDL
