MODEL 1
REMARK VINA RESULT:    -6.453      0.000      0.000
REMARK INTER + INTRA:          -6.832
REMARK INTER:                  -7.207
REMARK INTRA:                   0.375
REMARK UNBOUND:                 0.375
REMARK SMILES CC(C)(C)NC(=O)[C@@H]1CC[C@@H]2[C@H]3CC[C@@H]4NC(=O)C=C[C@@]4(C)[C@@H]3CC[C@]21C
REMARK SMILES IDX 6 1 7 2 5 3 8 5 26 6 25 7 11 8 24 9 12 10 10 11 9 12 23 13
REMARK SMILES IDX 13 14 21 15 14 16 15 17 20 18 16 19 19 20 17 21 18 22 27 23
REMARK SMILES IDX 22 24 2 26 1 27 3 28 4 29
REMARK H PARENT 5 4 16 25
ROOT
ATOM      1  C   UNL     1      -0.610   2.180   9.552  1.00  0.00     0.224 C 
ATOM      2  O   UNL     1      -0.400   3.120  10.327  1.00  0.00    -0.275 OA
ATOM      3  N   UNL     1      -1.810   1.522   9.570  1.00  0.00    -0.351 N 
ATOM      4  H   UNL     1      -2.039   0.951   8.764  1.00  0.00     0.163 HD
ENDROOT
BRANCH   1   5
ATOM      5  C   UNL     1       0.393   1.875   8.447  1.00  0.00     0.084 C 
ATOM      6  C   UNL     1       1.428   0.753   8.720  1.00  0.00    -0.018 C 
ATOM      7  C   UNL     1       1.181  -0.006  10.016  1.00  0.00     0.008 C 
ATOM      8  C   UNL     1       2.662   1.652   8.716  1.00  0.00    -0.001 C 
ATOM      9  C   UNL     1       2.221  -1.066  10.243  1.00  0.00     0.005 C 
ATOM     10  C   UNL     1       3.882   0.784   9.138  1.00  0.00    -0.003 C 
ATOM     11  C   UNL     1       2.358   2.400   7.266  1.00  0.00     0.005 C 
ATOM     12  C   UNL     1       0.747   2.256   7.051  1.00  0.00     0.014 C 
ATOM     13  C   UNL     1       3.599  -0.396  10.243  1.00  0.00     0.004 C 
ATOM     14  C   UNL     1       5.002   1.606   9.804  1.00  0.00     0.006 C 
ATOM     15  C   UNL     1       4.778  -1.416  10.256  1.00  0.00     0.009 C 
ATOM     16  C   UNL     1       6.273   0.731   9.768  1.00  0.00     0.026 C 
ATOM     17  C   UNL     1       6.084  -0.585  10.482  1.00  0.00     0.092 C 
ATOM     18  C   UNL     1       4.847  -2.386  11.465  1.00  0.00    -0.012 C 
ATOM     19  N   UNL     1       7.250  -1.427  10.450  1.00  0.00    -0.349 N 
ATOM     20  C   UNL     1       5.931  -3.206  11.543  1.00  0.00     0.067 C 
ATOM     21  C   UNL     1       7.270  -2.581  11.223  1.00  0.00     0.243 C 
ATOM     22  O   UNL     1       8.320  -3.133  11.525  1.00  0.00    -0.270 OA
ATOM     23  C   UNL     1       1.693  -0.292   7.536  1.00  0.00     0.012 C 
ATOM     24  C   UNL     1       4.649  -2.386   9.044  1.00  0.00     0.018 C 
ATOM     25  H   UNL     1       8.170  -1.019  10.330  1.00  0.00     0.164 HD
ENDBRANCH   1   5
BRANCH   3  26
ATOM     26  C   UNL     1      -2.924   2.040  10.404  1.00  0.00     0.032 C 
ATOM     27  C   UNL     1      -3.376   3.436   9.918  1.00  0.00     0.034 C 
ATOM     28  C   UNL     1      -4.112   1.065  10.271  1.00  0.00     0.034 C 
ATOM     29  C   UNL     1      -2.549   2.136  11.901  1.00  0.00     0.034 C 
ENDBRANCH   3  26
TORSDOF 2
ENDMDL
MODEL 2
REMARK VINA RESULT:    -6.396      1.241      1.584
REMARK INTER + INTRA:          -6.768
REMARK INTER:                  -7.235
REMARK INTRA:                   0.467
REMARK UNBOUND:                 0.375
REMARK SMILES CC(C)(C)NC(=O)[C@@H]1CC[C@@H]2[C@H]3CC[C@@H]4NC(=O)C=C[C@@]4(C)[C@@H]3CC[C@]21C
REMARK SMILES IDX 6 1 7 2 5 3 8 5 26 6 25 7 11 8 24 9 12 10 10 11 9 12 23 13
REMARK SMILES IDX 13 14 21 15 14 16 15 17 20 18 16 19 19 20 17 21 18 22 27 23
REMARK SMILES IDX 22 24 2 26 1 27 3 28 4 29
REMARK H PARENT 5 4 16 25
ROOT
ATOM      1  C   UNL     1      -1.351   2.275   8.074  1.00  0.00     0.224 C 
ATOM      2  O   UNL     1      -2.427   1.831   7.656  1.00  0.00    -0.275 OA
ATOM      3  N   UNL     1      -1.230   2.689   9.373  1.00  0.00    -0.351 N 
ATOM      4  H   UNL     1      -0.292   2.792   9.743  1.00  0.00     0.163 HD
ENDROOT
BRANCH   1   5
ATOM      5  C   UNL     1      -0.107   2.184   7.200  1.00  0.00     0.084 C 
ATOM      6  C   UNL     1       0.975   1.154   7.614  1.00  0.00    -0.018 C 
ATOM      7  C   UNL     1       0.553   0.251   8.765  1.00  0.00     0.008 C 
ATOM      8  C   UNL     1       2.063   2.171   7.949  1.00  0.00    -0.001 C 
ATOM      9  C   UNL     1       1.642  -0.713   9.140  1.00  0.00     0.005 C 
ATOM     10  C   UNL     1       3.262   1.397   8.567  1.00  0.00    -0.003 C 
ATOM     11  C   UNL     1       1.985   3.022   6.526  1.00  0.00     0.005 C 
ATOM     12  C   UNL     1       0.486   2.734   5.949  1.00  0.00     0.014 C 
ATOM     13  C   UNL     1       2.897   0.093   9.493  1.00  0.00     0.004 C 
ATOM     14  C   UNL     1       4.106   2.261   9.523  1.00  0.00     0.006 C 
ATOM     15  C   UNL     1       4.162  -0.797   9.694  1.00  0.00     0.009 C 
ATOM     16  C   UNL     1       5.454   1.529   9.706  1.00  0.00     0.026 C 
ATOM     17  C   UNL     1       5.279   0.138  10.264  1.00  0.00     0.092 C 
ATOM     18  C   UNL     1       4.090  -1.868  10.815  1.00  0.00    -0.012 C 
ATOM     19  N   UNL     1       6.519  -0.572  10.430  1.00  0.00    -0.349 N 
ATOM     20  C   UNL     1       5.225  -2.575  11.072  1.00  0.00     0.067 C 
ATOM     21  C   UNL     1       6.515  -1.788  11.103  1.00  0.00     0.243 C 
ATOM     22  O   UNL     1       7.536  -2.255  11.589  1.00  0.00    -0.270 OA
ATOM     23  C   UNL     1       1.611   0.262   6.446  1.00  0.00     0.012 C 
ATOM     24  C   UNL     1       4.412  -1.653   8.416  1.00  0.00     0.018 C 
ATOM     25  H   UNL     1       7.387  -0.061  10.547  1.00  0.00     0.164 HD
ENDBRANCH   1   5
BRANCH   3  26
ATOM     26  C   UNL     1      -2.342   2.453  10.330  1.00  0.00     0.032 C 
ATOM     27  C   UNL     1      -2.796   0.976  10.297  1.00  0.00     0.034 C 
ATOM     28  C   UNL     1      -1.825   2.777  11.747  1.00  0.00     0.034 C 
ATOM     29  C   UNL     1      -3.566   3.353  10.049  1.00  0.00     0.034 C 
ENDBRANCH   3  26
TORSDOF 2
ENDMDL
MODEL 3
REMARK VINA RESULT:    -6.116      1.913      7.888
REMARK INTER + INTRA:          -6.456
REMARK INTER:                  -6.806
REMARK INTRA:                   0.351
REMARK UNBOUND:                 0.375
REMARK SMILES CC(C)(C)NC(=O)[C@@H]1CC[C@@H]2[C@H]3CC[C@@H]4NC(=O)C=C[C@@]4(C)[C@@H]3CC[C@]21C
REMARK SMILES IDX 6 1 7 2 5 3 8 5 26 6 25 7 11 8 24 9 12 10 10 11 9 12 23 13
REMARK SMILES IDX 13 14 21 15 14 16 15 17 20 18 16 19 19 20 17 21 18 22 27 23
REMARK SMILES IDX 22 24 2 26 1 27 3 28 4 29
REMARK H PARENT 5 4 16 25
ROOT
ATOM      1  C   UNL     1       4.787  -0.824   9.824  1.00  0.00     0.224 C 
ATOM      2  O   UNL     1       4.571  -1.633   8.914  1.00  0.00    -0.275 OA
ATOM      3  N   UNL     1       5.591  -1.164  10.877  1.00  0.00    -0.351 N 
ATOM      4  H   UNL     1       5.952  -0.409  11.450  1.00  0.00     0.163 HD
ENDROOT
BRANCH   1   5
ATOM      5  C   UNL     1       4.313   0.617   9.681  1.00  0.00     0.084 C 
ATOM      6  C   UNL     1       2.877   0.942  10.168  1.00  0.00    -0.018 C 
ATOM      7  C   UNL     1       2.196  -0.216  10.882  1.00  0.00     0.008 C 
ATOM      8  C   UNL     1       2.304   1.289   8.796  1.00  0.00    -0.001 C 
ATOM      9  C   UNL     1       0.803   0.143  11.315  1.00  0.00     0.005 C 
ATOM     10  C   UNL     1       0.774   1.512   8.963  1.00  0.00    -0.003 C 
ATOM     11  C   UNL     1       3.481   2.374   8.357  1.00  0.00     0.005 C 
ATOM     12  C   UNL     1       4.781   1.964   9.253  1.00  0.00     0.014 C 
ATOM     13  C   UNL     1       0.012   0.578  10.077  1.00  0.00     0.004 C 
ATOM     14  C   UNL     1      -0.021   1.217   7.677  1.00  0.00     0.006 C 
ATOM     15  C   UNL     1      -1.385   1.180  10.420  1.00  0.00     0.009 C 
ATOM     16  C   UNL     1      -1.405   1.878   7.852  1.00  0.00     0.026 C 
ATOM     17  C   UNL     1      -2.141   1.355   9.062  1.00  0.00     0.092 C 
ATOM     18  C   UNL     1      -2.375   0.255  11.178  1.00  0.00    -0.012 C 
ATOM     19  N   UNL     1      -3.429   1.966   9.257  1.00  0.00    -0.349 N 
ATOM     20  C   UNL     1      -3.634   0.731  11.385  1.00  0.00     0.067 C 
ATOM     21  C   UNL     1      -4.282   1.448  10.223  1.00  0.00     0.243 C 
ATOM     22  O   UNL     1      -5.486   1.666  10.200  1.00  0.00    -0.270 OA
ATOM     23  C   UNL     1       2.689   2.280  11.027  1.00  0.00     0.012 C 
ATOM     24  C   UNL     1      -1.215   2.378  11.401  1.00  0.00     0.018 C 
ATOM     25  H   UNL     1      -3.925   2.371   8.471  1.00  0.00     0.164 HD
ENDBRANCH   1   5
BRANCH   3  26
ATOM     26  C   UNL     1       6.342  -2.446  10.850  1.00  0.00     0.032 C 
ATOM     27  C   UNL     1       7.219  -2.546   9.581  1.00  0.00     0.034 C 
ATOM     28  C   UNL     1       7.261  -2.486  12.087  1.00  0.00     0.034 C 
ATOM     29  C   UNL     1       5.411  -3.679  10.905  1.00  0.00     0.034 C 
ENDBRANCH   3  26
TORSDOF 2
ENDMDL
MODEL 4
REMARK VINA RESULT:    -6.032      3.743      7.841
REMARK INTER + INTRA:          -6.362
REMARK INTER:                  -6.765
REMARK INTRA:                   0.402
REMARK UNBOUND:                 0.375
REMARK SMILES CC(C)(C)NC(=O)[C@@H]1CC[C@@H]2[C@H]3CC[C@@H]4NC(=O)C=C[C@@]4(C)[C@@H]3CC[C@]21C
REMARK SMILES IDX 6 1 7 2 5 3 8 5 26 6 25 7 11 8 24 9 12 10 10 11 9 12 23 13
REMARK SMILES IDX 13 14 21 15 14 16 15 17 20 18 16 19 19 20 17 21 18 22 27 23
REMARK SMILES IDX 22 24 2 26 1 27 3 28 4 29
REMARK H PARENT 5 4 16 25
ROOT
ATOM      1  C   UNL     1       3.655  -0.603   9.765  1.00  0.00     0.224 C 
ATOM      2  O   UNL     1       3.841  -1.765  10.146  1.00  0.00    -0.275 OA
ATOM      3  N   UNL     1       4.716   0.210   9.477  1.00  0.00    -0.351 N 
ATOM      4  H   UNL     1       4.530   1.041   8.927  1.00  0.00     0.163 HD
ENDROOT
BRANCH   1   5
ATOM      5  C   UNL     1       2.244  -0.136   9.433  1.00  0.00     0.084 C 
ATOM      6  C   UNL     1       1.847  -0.094   7.934  1.00  0.00    -0.018 C 
ATOM      7  C   UNL     1       2.893  -0.695   7.007  1.00  0.00     0.008 C 
ATOM      8  C   UNL     1       1.684   1.421   7.840  1.00  0.00    -0.001 C 
ATOM      9  C   UNL     1       2.469  -0.612   5.567  1.00  0.00     0.005 C 
ATOM     10  C   UNL     1       1.431   1.779   6.348  1.00  0.00    -0.003 C 
ATOM     11  C   UNL     1       0.676   1.595   9.147  1.00  0.00     0.005 C 
ATOM     12  C   UNL     1       0.969   0.287  10.077  1.00  0.00     0.014 C 
ATOM     13  C   UNL     1       2.201   0.859   5.229  1.00  0.00     0.004 C 
ATOM     14  C   UNL     1       1.892   3.204   5.986  1.00  0.00     0.006 C 
ATOM     15  C   UNL     1       1.549   1.057   3.827  1.00  0.00     0.009 C 
ATOM     16  C   UNL     1       1.204   3.564   4.651  1.00  0.00     0.026 C 
ATOM     17  C   UNL     1       1.554   2.596   3.547  1.00  0.00     0.092 C 
ATOM     18  C   UNL     1       2.356   0.545   2.604  1.00  0.00    -0.012 C 
ATOM     19  N   UNL     1       0.913   2.901   2.295  1.00  0.00    -0.349 N 
ATOM     20  C   UNL     1       1.848   0.811   1.369  1.00  0.00     0.067 C 
ATOM     21  C   UNL     1       1.291   2.200   1.157  1.00  0.00     0.243 C 
ATOM     22  O   UNL     1       1.071   2.634   0.033  1.00  0.00    -0.270 OA
ATOM     23  C   UNL     1       0.403  -0.673   7.551  1.00  0.00     0.012 C 
ATOM     24  C   UNL     1       0.230   0.233   3.738  1.00  0.00     0.018 C 
ATOM     25  H   UNL     1       0.615   3.848   2.092  1.00  0.00     0.164 HD
ENDBRANCH   1   5
BRANCH   3  26
ATOM     26  C   UNL     1       6.093  -0.349   9.461  1.00  0.00     0.032 C 
ATOM     27  C   UNL     1       6.281  -1.319   8.272  1.00  0.00     0.034 C 
ATOM     28  C   UNL     1       7.081   0.824   9.299  1.00  0.00     0.034 C 
ATOM     29  C   UNL     1       6.444  -1.096  10.768  1.00  0.00     0.034 C 
ENDBRANCH   3  26
TORSDOF 2
ENDMDL
MODEL 5
REMARK VINA RESULT:    -5.893      3.379      5.535
REMARK INTER + INTRA:          -6.207
REMARK INTER:                  -6.516
REMARK INTRA:                   0.310
REMARK UNBOUND:                 0.375
REMARK SMILES CC(C)(C)NC(=O)[C@@H]1CC[C@@H]2[C@H]3CC[C@@H]4NC(=O)C=C[C@@]4(C)[C@@H]3CC[C@]21C
REMARK SMILES IDX 6 1 7 2 5 3 8 5 26 6 25 7 11 8 24 9 12 10 10 11 9 12 23 13
REMARK SMILES IDX 13 14 21 15 14 16 15 17 20 18 16 19 19 20 17 21 18 22 27 23
REMARK SMILES IDX 22 24 2 26 1 27 3 28 4 29
REMARK H PARENT 5 4 16 25
ROOT
ATOM      1  C   UNL     1       2.781  -0.069   9.951  1.00  0.00     0.224 C 
ATOM      2  O   UNL     1       2.950   0.843  10.769  1.00  0.00    -0.275 OA
ATOM      3  N   UNL     1       2.298   0.203   8.701  1.00  0.00    -0.351 N 
ATOM      4  H   UNL     1       2.422  -0.509   7.989  1.00  0.00     0.163 HD
ENDROOT
BRANCH   1   5
ATOM      5  C   UNL     1       3.288  -1.469  10.268  1.00  0.00     0.084 C 
ATOM      6  C   UNL     1       4.753  -1.796   9.878  1.00  0.00    -0.018 C 
ATOM      7  C   UNL     1       5.536  -0.593   9.373  1.00  0.00     0.008 C 
ATOM      8  C   UNL     1       4.420  -2.847   8.821  1.00  0.00    -0.001 C 
ATOM      9  C   UNL     1       6.940  -0.967   8.989  1.00  0.00     0.005 C 
ATOM     10  C   UNL     1       5.748  -3.254   8.121  1.00  0.00    -0.003 C 
ATOM     11  C   UNL     1       3.408  -3.765   9.765  1.00  0.00     0.005 C 
ATOM     12  C   UNL     1       2.876  -2.743  10.921  1.00  0.00     0.014 C 
ATOM     13  C   UNL     1       6.871  -2.073   7.930  1.00  0.00     0.004 C 
ATOM     14  C   UNL     1       5.538  -3.753   6.679  1.00  0.00     0.006 C 
ATOM     15  C   UNL     1       8.261  -2.698   7.605  1.00  0.00     0.009 C 
ATOM     16  C   UNL     1       6.826  -4.506   6.280  1.00  0.00     0.026 C 
ATOM     17  C   UNL     1       8.051  -3.629   6.365  1.00  0.00     0.092 C 
ATOM     18  C   UNL     1       9.347  -1.735   7.054  1.00  0.00    -0.012 C 
ATOM     19  N   UNL     1       9.269  -4.312   6.014  1.00  0.00    -0.349 N 
ATOM     20  C   UNL     1      10.528  -2.289   6.663  1.00  0.00     0.067 C 
ATOM     21  C   UNL     1      10.438  -3.575   5.874  1.00  0.00     0.243 C 
ATOM     22  O   UNL     1      11.395  -4.004   5.243  1.00  0.00    -0.270 OA
ATOM     23  C   UNL     1       5.632  -2.585  10.959  1.00  0.00     0.012 C 
ATOM     24  C   UNL     1       8.914  -3.241   8.911  1.00  0.00     0.018 C 
ATOM     25  H   UNL     1       9.241  -5.123   5.407  1.00  0.00     0.164 HD
ENDBRANCH   1   5
BRANCH   3  26
ATOM     26  C   UNL     1       2.131   1.613   8.263  1.00  0.00     0.032 C 
ATOM     27  C   UNL     1       3.462   2.391   8.387  1.00  0.00     0.034 C 
ATOM     28  C   UNL     1       1.704   1.604   6.781  1.00  0.00     0.034 C 
ATOM     29  C   UNL     1       1.046   2.360   9.071  1.00  0.00     0.034 C 
ENDBRANCH   3  26
TORSDOF 2
ENDMDL
MODEL 6
REMARK VINA RESULT:    -5.859      3.199      7.770
REMARK INTER + INTRA:          -6.169
REMARK INTER:                  -6.531
REMARK INTRA:                   0.361
REMARK UNBOUND:                 0.375
REMARK SMILES CC(C)(C)NC(=O)[C@@H]1CC[C@@H]2[C@H]3CC[C@@H]4NC(=O)C=C[C@@]4(C)[C@@H]3CC[C@]21C
REMARK SMILES IDX 6 1 7 2 5 3 8 5 26 6 25 7 11 8 24 9 12 10 10 11 9 12 23 13
REMARK SMILES IDX 13 14 21 15 14 16 15 17 20 18 16 19 19 20 17 21 18 22 27 23
REMARK SMILES IDX 22 24 2 26 1 27 3 28 4 29
REMARK H PARENT 5 4 16 25
ROOT
ATOM      1  C   UNL     1       4.822  -1.442  10.356  1.00  0.00     0.224 C 
ATOM      2  O   UNL     1       5.709  -0.590  10.479  1.00  0.00    -0.275 OA
ATOM      3  N   UNL     1       5.118  -2.773  10.475  1.00  0.00    -0.351 N 
ATOM      4  H   UNL     1       4.344  -3.409  10.631  1.00  0.00     0.163 HD
ENDROOT
BRANCH   1   5
ATOM      5  C   UNL     1       3.365  -1.007  10.261  1.00  0.00     0.084 C 
ATOM      6  C   UNL     1       2.781  -0.794   8.841  1.00  0.00    -0.018 C 
ATOM      7  C   UNL     1       3.721  -1.218   7.722  1.00  0.00     0.008 C 
ATOM      8  C   UNL     1       2.558   0.711   8.969  1.00  0.00    -0.001 C 
ATOM      9  C   UNL     1       3.117  -0.973   6.368  1.00  0.00     0.005 C 
ATOM     10  C   UNL     1       2.106   1.244   7.580  1.00  0.00    -0.003 C 
ATOM     11  C   UNL     1       1.717   0.666  10.400  1.00  0.00     0.005 C 
ATOM     12  C   UNL     1       2.169  -0.734  11.105  1.00  0.00     0.014 C 
ATOM     13  C   UNL     1       2.759   0.514   6.263  1.00  0.00     0.004 C 
ATOM     14  C   UNL     1       2.470   2.724   7.357  1.00  0.00     0.006 C 
ATOM     15  C   UNL     1       1.929   0.857   4.989  1.00  0.00     0.009 C 
ATOM     16  C   UNL     1       1.608   3.218   6.174  1.00  0.00     0.026 C 
ATOM     17  C   UNL     1       1.847   2.418   4.918  1.00  0.00     0.092 C 
ATOM     18  C   UNL     1       2.592   0.546   3.620  1.00  0.00    -0.012 C 
ATOM     19  N   UNL     1       1.045   2.847   3.804  1.00  0.00    -0.349 N 
ATOM     20  C   UNL     1       1.924   0.942   2.502  1.00  0.00     0.067 C 
ATOM     21  C   UNL     1       1.299   2.318   2.545  1.00  0.00     0.243 C 
ATOM     22  O   UNL     1       0.924   2.880   1.524  1.00  0.00    -0.270 OA
ATOM     23  C   UNL     1       1.321  -1.390   8.561  1.00  0.00     0.012 C 
ATOM     24  C   UNL     1       0.638  -0.013   4.951  1.00  0.00     0.018 C 
ATOM     25  H   UNL     1       0.692   3.797   3.766  1.00  0.00     0.164 HD
ENDBRANCH   1   5
BRANCH   3  26
ATOM     26  C   UNL     1       6.473  -3.191  10.917  1.00  0.00     0.032 C 
ATOM     27  C   UNL     1       6.855  -2.508  12.250  1.00  0.00     0.034 C 
ATOM     28  C   UNL     1       6.452  -4.718  11.135  1.00  0.00     0.034 C 
ATOM     29  C   UNL     1       7.563  -2.872   9.868  1.00  0.00     0.034 C 
ENDBRANCH   3  26
TORSDOF 2
ENDMDL
MODEL 7
REMARK VINA RESULT:    -5.853      4.548      9.609
REMARK INTER + INTRA:          -6.162
REMARK INTER:                  -6.512
REMARK INTRA:                   0.350
REMARK UNBOUND:                 0.375
REMARK SMILES CC(C)(C)NC(=O)[C@@H]1CC[C@@H]2[C@H]3CC[C@@H]4NC(=O)C=C[C@@]4(C)[C@@H]3CC[C@]21C
REMARK SMILES IDX 6 1 7 2 5 3 8 5 26 6 25 7 11 8 24 9 12 10 10 11 9 12 23 13
REMARK SMILES IDX 13 14 21 15 14 16 15 17 20 18 16 19 19 20 17 21 18 22 27 23
REMARK SMILES IDX 22 24 2 26 1 27 3 28 4 29
REMARK H PARENT 5 4 16 25
ROOT
ATOM      1  C   UNL     1       2.333   1.405   7.642  1.00  0.00     0.224 C 
ATOM      2  O   UNL     1       1.508   1.116   8.516  1.00  0.00    -0.275 OA
ATOM      3  N   UNL     1       3.577   1.859   7.986  1.00  0.00    -0.351 N 
ATOM      4  H   UNL     1       4.297   1.831   7.273  1.00  0.00     0.163 HD
ENDROOT
BRANCH   1   5
ATOM      5  C   UNL     1       2.035   1.077   6.185  1.00  0.00     0.084 C 
ATOM      6  C   UNL     1       1.397   2.197   5.324  1.00  0.00    -0.018 C 
ATOM      7  C   UNL     1       1.311   3.541   6.032  1.00  0.00     0.008 C 
ATOM      8  C   UNL     1       0.060   1.496   5.091  1.00  0.00    -0.001 C 
ATOM      9  C   UNL     1       0.668   4.585   5.163  1.00  0.00     0.005 C 
ATOM     10  C   UNL     1      -0.878   2.495   4.356  1.00  0.00    -0.003 C 
ATOM     11  C   UNL     1       0.683   0.054   4.554  1.00  0.00     0.005 C 
ATOM     12  C   UNL     1       2.191  -0.006   5.175  1.00  0.00     0.014 C 
ATOM     13  C   UNL     1      -0.720   4.080   4.752  1.00  0.00     0.004 C 
ATOM     14  C   UNL     1      -2.370   2.229   4.629  1.00  0.00     0.006 C 
ATOM     15  C   UNL     1      -1.405   4.976   3.676  1.00  0.00     0.009 C 
ATOM     16  C   UNL     1      -3.160   2.981   3.535  1.00  0.00     0.026 C 
ATOM     17  C   UNL     1      -2.876   4.463   3.540  1.00  0.00     0.092 C 
ATOM     18  C   UNL     1      -1.657   6.458   4.060  1.00  0.00    -0.012 C 
ATOM     19  N   UNL     1      -3.589   5.185   2.520  1.00  0.00    -0.349 N 
ATOM     20  C   UNL     1      -2.352   7.221   3.172  1.00  0.00     0.067 C 
ATOM     21  C   UNL     1      -3.559   6.574   2.531  1.00  0.00     0.243 C 
ATOM     22  O   UNL     1      -4.403   7.239   1.945  1.00  0.00    -0.270 OA
ATOM     23  C   UNL     1       1.995   2.410   3.854  1.00  0.00     0.012 C 
ATOM     24  C   UNL     1      -0.483   5.097   2.427  1.00  0.00     0.018 C 
ATOM     25  H   UNL     1      -4.453   4.814   2.142  1.00  0.00     0.164 HD
ENDBRANCH   1   5
BRANCH   3  26
ATOM     26  C   UNL     1       3.999   1.849   9.411  1.00  0.00     0.032 C 
ATOM     27  C   UNL     1       3.944   0.418   9.993  1.00  0.00     0.034 C 
ATOM     28  C   UNL     1       5.456   2.351   9.479  1.00  0.00     0.034 C 
ATOM     29  C   UNL     1       3.131   2.775  10.293  1.00  0.00     0.034 C 
ENDBRANCH   3  26
TORSDOF 2
ENDMDL
MODEL 8
REMARK VINA RESULT:    -5.820      2.317      3.698
REMARK INTER + INTRA:          -6.125
REMARK INTER:                  -6.493
REMARK INTRA:                   0.368
REMARK UNBOUND:                 0.375
REMARK SMILES CC(C)(C)NC(=O)[C@@H]1CC[C@@H]2[C@H]3CC[C@@H]4NC(=O)C=C[C@@]4(C)[C@@H]3CC[C@]21C
REMARK SMILES IDX 6 1 7 2 5 3 8 5 26 6 25 7 11 8 24 9 12 10 10 11 9 12 23 13
REMARK SMILES IDX 13 14 21 15 14 16 15 17 20 18 16 19 19 20 17 21 18 22 27 23
REMARK SMILES IDX 22 24 2 26 1 27 3 28 4 29
REMARK H PARENT 5 4 16 25
ROOT
ATOM      1  C   UNL     1       0.507   2.167   7.926  1.00  0.00     0.224 C 
ATOM      2  O   UNL     1      -0.393   1.359   7.671  1.00  0.00    -0.275 OA
ATOM      3  N   UNL     1       0.798   3.179   7.052  1.00  0.00    -0.351 N 
ATOM      4  H   UNL     1       1.341   3.958   7.407  1.00  0.00     0.163 HD
ENDROOT
BRANCH   1   5
ATOM      5  C   UNL     1       1.164   2.155   9.300  1.00  0.00     0.084 C 
ATOM      6  C   UNL     1       2.500   1.380   9.439  1.00  0.00    -0.018 C 
ATOM      7  C   UNL     1       3.053   0.872   8.116  1.00  0.00     0.008 C 
ATOM      8  C   UNL     1       1.976   0.301  10.384  1.00  0.00    -0.001 C 
ATOM      9  C   UNL     1       4.335   0.112   8.307  1.00  0.00     0.005 C 
ATOM     10  C   UNL     1       3.107  -0.749  10.578  1.00  0.00    -0.003 C 
ATOM     11  C   UNL     1       1.295   1.326  11.498  1.00  0.00     0.005 C 
ATOM     12  C   UNL     1       1.010   2.706  10.676  1.00  0.00     0.014 C 
ATOM     13  C   UNL     1       4.070  -1.041   9.281  1.00  0.00     0.004 C 
ATOM     14  C   UNL     1       2.571  -2.152  10.920  1.00  0.00     0.006 C 
ATOM     15  C   UNL     1       5.369  -1.777   9.730  1.00  0.00     0.009 C 
ATOM     16  C   UNL     1       3.761  -2.951  11.496  1.00  0.00     0.026 C 
ATOM     17  C   UNL     1       4.911  -3.045  10.524  1.00  0.00     0.092 C 
ATOM     18  C   UNL     1       6.219  -2.436   8.610  1.00  0.00    -0.012 C 
ATOM     19  N   UNL     1       6.040  -3.772  11.041  1.00  0.00    -0.349 N 
ATOM     20  C   UNL     1       7.294  -3.174   9.000  1.00  0.00     0.067 C 
ATOM     21  C   UNL     1       7.088  -4.088  10.186  1.00  0.00     0.243 C 
ATOM     22  O   UNL     1       7.880  -4.985  10.445  1.00  0.00    -0.270 OA
ATOM     23  C   UNL     1       3.671   2.097  10.263  1.00  0.00     0.012 C 
ATOM     24  C   UNL     1       6.362  -0.756  10.359  1.00  0.00     0.018 C 
ATOM     25  H   UNL     1       5.910  -4.460  11.775  1.00  0.00     0.164 HD
ENDBRANCH   1   5
BRANCH   3  26
ATOM     26  C   UNL     1      -0.074   3.409   5.871  1.00  0.00     0.032 C 
ATOM     27  C   UNL     1      -1.529   3.698   6.307  1.00  0.00     0.034 C 
ATOM     28  C   UNL     1       0.466   4.640   5.114  1.00  0.00     0.034 C 
ATOM     29  C   UNL     1      -0.080   2.210   4.896  1.00  0.00     0.034 C 
ENDBRANCH   3  26
TORSDOF 2
ENDMDL
MODEL 9
REMARK VINA RESULT:    -5.759      2.620      8.313
REMARK INTER + INTRA:          -6.058
REMARK INTER:                  -6.528
REMARK INTRA:                   0.470
REMARK UNBOUND:                 0.375
REMARK SMILES CC(C)(C)NC(=O)[C@@H]1CC[C@@H]2[C@H]3CC[C@@H]4NC(=O)C=C[C@@]4(C)[C@@H]3CC[C@]21C
REMARK SMILES IDX 6 1 7 2 5 3 8 5 26 6 25 7 11 8 24 9 12 10 10 11 9 12 23 13
REMARK SMILES IDX 13 14 21 15 14 16 15 17 20 18 16 19 19 20 17 21 18 22 27 23
REMARK SMILES IDX 22 24 2 26 1 27 3 28 4 29
REMARK H PARENT 5 4 16 25
ROOT
ATOM      1  C   UNL     1       7.259  -4.532   8.863  1.00  0.00     0.224 C 
ATOM      2  O   UNL     1       6.628  -5.544   8.537  1.00  0.00    -0.275 OA
ATOM      3  N   UNL     1       8.100  -3.923   7.972  1.00  0.00    -0.351 N 
ATOM      4  H   UNL     1       8.386  -2.973   8.178  1.00  0.00     0.163 HD
ENDROOT
BRANCH   1   5
ATOM      5  C   UNL     1       6.957  -3.851  10.191  1.00  0.00     0.084 C 
ATOM      6  C   UNL     1       5.651  -3.018  10.278  1.00  0.00    -0.018 C 
ATOM      7  C   UNL     1       4.763  -3.141   9.049  1.00  0.00     0.008 C 
ATOM      8  C   UNL     1       6.324  -1.660  10.464  1.00  0.00    -0.001 C 
ATOM      9  C   UNL     1       3.523  -2.302   9.175  1.00  0.00     0.005 C 
ATOM     10  C   UNL     1       5.214  -0.571  10.421  1.00  0.00    -0.003 C 
ATOM     11  C   UNL     1       7.316  -2.099  11.720  1.00  0.00     0.005 C 
ATOM     12  C   UNL     1       7.473  -3.717  11.581  1.00  0.00     0.014 C 
ATOM     13  C   UNL     1       3.949  -0.849   9.414  1.00  0.00     0.004 C 
ATOM     14  C   UNL     1       5.732   0.797   9.939  1.00  0.00     0.006 C 
ATOM     15  C   UNL     1       2.756   0.089   9.775  1.00  0.00     0.009 C 
ATOM     16  C   UNL     1       4.673   1.841  10.354  1.00  0.00     0.026 C 
ATOM     17  C   UNL     1       3.317   1.549   9.759  1.00  0.00     0.092 C 
ATOM     18  C   UNL     1       1.622   0.211   8.722  1.00  0.00    -0.012 C 
ATOM     19  N   UNL     1       2.307   2.499  10.142  1.00  0.00    -0.349 N 
ATOM     20  C   UNL     1       0.632   1.109   8.977  1.00  0.00     0.067 C 
ATOM     21  C   UNL     1       1.066   2.451   9.522  1.00  0.00     0.243 C 
ATOM     22  O   UNL     1       0.309   3.413   9.524  1.00  0.00    -0.270 OA
ATOM     23  C   UNL     1       4.760  -3.204  11.596  1.00  0.00     0.012 C 
ATOM     24  C   UNL     1       2.009  -0.467  11.023  1.00  0.00     0.018 C 
ATOM     25  H   UNL     1       2.571   3.438  10.422  1.00  0.00     0.164 HD
ENDBRANCH   1   5
BRANCH   3  26
ATOM     26  C   UNL     1       8.134  -4.378   6.558  1.00  0.00     0.032 C 
ATOM     27  C   UNL     1       6.869  -3.916   5.799  1.00  0.00     0.034 C 
ATOM     28  C   UNL     1       9.369  -3.746   5.884  1.00  0.00     0.034 C 
ATOM     29  C   UNL     1       8.253  -5.914   6.432  1.00  0.00     0.034 C 
ENDBRANCH   3  26
TORSDOF 2
ENDMDL
