MODEL 1
REMARK VINA RESULT:    -6.203      0.000      0.000
REMARK INTER + INTRA:          -7.712
REMARK INTER:                  -7.473
REMARK INTRA:                  -0.239
REMARK UNBOUND:                -0.239
REMARK SMILES NCCNC(=O)c1cccc2ccccc12
REMARK SMILES IDX 3 1 4 2 5 3 6 4 7 6 13 7 14 8 12 9 15 10 11 11 16 12 10 13
REMARK SMILES IDX 9 14 8 15 2 16 1 17
REMARK H PARENT 4 5 1 18 1 19
ROOT
ATOM      1  C   UNL     1      20.848  -8.949 -12.028  1.00  0.00     0.131 C 
ENDROOT
BRANCH   1   2
ATOM      2  N   UNL     1      21.578  -7.885 -12.703  1.00  0.00    -0.351 N 
ATOM      3  C   UNL     1      21.789  -6.661 -12.105  1.00  0.00     0.251 C 
ATOM      4  O   UNL     1      21.401  -6.403 -10.970  1.00  0.00    -0.269 OA
ATOM      5  H   UNL     1      22.027  -8.104 -13.582  1.00  0.00     0.163 HD
BRANCH   3   6
ATOM      6  C   UNL     1      22.587  -5.652 -12.866  1.00  0.00     0.047 A 
ATOM      7  C   UNL     1      21.129  -2.070 -14.681  1.00  0.00     0.001 A 
ATOM      8  C   UNL     1      20.255  -2.841 -13.932  1.00  0.00     0.001 A 
ATOM      9  C   UNL     1      22.464  -2.448 -14.783  1.00  0.00     0.009 A 
ATOM     10  C   UNL     1      20.715  -4.004 -13.306  1.00  0.00     0.009 A 
ATOM     11  C   UNL     1      22.939  -3.618 -14.165  1.00  0.00    -0.018 A 
ATOM     12  C   UNL     1      22.054  -4.453 -13.434  1.00  0.00    -0.006 A 
ATOM     13  C   UNL     1      24.299  -3.945 -14.268  1.00  0.00     0.009 A 
ATOM     14  C   UNL     1      24.810  -5.094 -13.677  1.00  0.00     0.001 A 
ATOM     15  C   UNL     1      23.957  -5.947 -12.986  1.00  0.00     0.014 A 
ENDBRANCH   3   6
ENDBRANCH   1   2
BRANCH   1  16
ATOM     16  C   UNL     1      21.756  -9.901 -11.234  1.00  0.00     0.099 C 
BRANCH  16  17
ATOM     17  N   UNL     1      22.838 -10.456 -12.059  1.00  0.00    -0.329 NA
ATOM     18  H   UNL     1      22.558 -10.376 -13.035  1.00  0.00     0.118 HD
ATOM     19  H   UNL     1      22.905 -11.457 -11.875  1.00  0.00     0.118 HD
ENDBRANCH  16  17
ENDBRANCH   1  16
TORSDOF 4
ENDMDL
MODEL 2
REMARK VINA RESULT:    -5.606      3.118      5.022
REMARK INTER + INTRA:          -6.992
REMARK INTER:                  -7.003
REMARK INTRA:                   0.011
REMARK UNBOUND:                -0.239
REMARK SMILES NCCNC(=O)c1cccc2ccccc12
REMARK SMILES IDX 3 1 4 2 5 3 6 4 7 6 13 7 14 8 12 9 15 10 11 11 16 12 10 13
REMARK SMILES IDX 9 14 8 15 2 16 1 17
REMARK H PARENT 4 5 1 18 1 19
ROOT
ATOM      1  C   UNL     1      22.562 -11.094  -6.980  1.00  0.00     0.131 C 
ENDROOT
BRANCH   1   2
ATOM      2  N   UNL     1      22.351 -10.573  -8.324  1.00  0.00    -0.351 N 
ATOM      3  C   UNL     1      21.992  -9.261  -8.542  1.00  0.00     0.251 C 
ATOM      4  O   UNL     1      21.853  -8.452  -7.630  1.00  0.00    -0.269 OA
ATOM      5  H   UNL     1      22.585 -11.171  -9.105  1.00  0.00     0.163 HD
BRANCH   3   6
ATOM      6  C   UNL     1      21.841  -8.815  -9.961  1.00  0.00     0.047 A 
ATOM      7  C   UNL     1      23.116  -5.095 -11.629  1.00  0.00     0.001 A 
ATOM      8  C   UNL     1      23.426  -5.374 -10.308  1.00  0.00     0.001 A 
ATOM      9  C   UNL     1      22.447  -6.045 -12.394  1.00  0.00     0.009 A 
ATOM     10  C   UNL     1      23.043  -6.597  -9.747  1.00  0.00     0.009 A 
ATOM     11  C   UNL     1      22.049  -7.275 -11.841  1.00  0.00    -0.018 A 
ATOM     12  C   UNL     1      22.309  -7.567 -10.476  1.00  0.00    -0.006 A 
ATOM     13  C   UNL     1      21.404  -8.217 -12.656  1.00  0.00     0.009 A 
ATOM     14  C   UNL     1      20.990  -9.443 -12.150  1.00  0.00     0.001 A 
ATOM     15  C   UNL     1      21.201  -9.737 -10.808  1.00  0.00     0.014 A 
ENDBRANCH   3   6
ENDBRANCH   1   2
BRANCH   1  16
ATOM     16  C   UNL     1      21.806 -12.405  -6.712  1.00  0.00     0.099 C 
BRANCH  16  17
ATOM     17  N   UNL     1      20.348 -12.228  -6.767  1.00  0.00    -0.329 NA
ATOM     18  H   UNL     1      20.028 -11.988  -5.830  1.00  0.00     0.118 HD
ATOM     19  H   UNL     1      19.920 -13.129  -6.978  1.00  0.00     0.118 HD
ENDBRANCH  16  17
ENDBRANCH   1  16
TORSDOF 4
ENDMDL
MODEL 3
REMARK VINA RESULT:    -5.446     11.529     13.262
REMARK INTER + INTRA:          -6.800
REMARK INTER:                  -6.519
REMARK INTRA:                  -0.280
REMARK UNBOUND:                -0.239
REMARK SMILES NCCNC(=O)c1cccc2ccccc12
REMARK SMILES IDX 3 1 4 2 5 3 6 4 7 6 13 7 14 8 12 9 15 10 11 11 16 12 10 13
REMARK SMILES IDX 9 14 8 15 2 16 1 17
REMARK H PARENT 4 5 1 18 1 19
ROOT
ATOM      1  C   UNL     1      21.841   9.164  -8.661  1.00  0.00     0.131 C 
ENDROOT
BRANCH   1   2
ATOM      2  N   UNL     1      21.877   8.313  -9.843  1.00  0.00    -0.351 N 
ATOM      3  C   UNL     1      22.171   6.969  -9.758  1.00  0.00     0.251 C 
ATOM      4  O   UNL     1      22.394   6.407  -8.690  1.00  0.00    -0.269 OA
ATOM      5  H   UNL     1      21.569   8.710 -10.720  1.00  0.00     0.163 HD
BRANCH   3   6
ATOM      6  C   UNL     1      22.140   6.176 -11.024  1.00  0.00     0.047 A 
ATOM      7  C   UNL     1      25.486   5.065 -13.436  1.00  0.00     0.001 A 
ATOM      8  C   UNL     1      25.717   5.723 -12.240  1.00  0.00     0.001 A 
ATOM      9  C   UNL     1      24.184   4.735 -13.799  1.00  0.00     0.009 A 
ATOM     10  C   UNL     1      24.639   6.074 -11.420  1.00  0.00     0.009 A 
ATOM     11  C   UNL     1      23.091   5.087 -12.989  1.00  0.00    -0.018 A 
ATOM     12  C   UNL     1      23.294   5.808 -11.783  1.00  0.00    -0.006 A 
ATOM     13  C   UNL     1      21.797   4.708 -13.378  1.00  0.00     0.009 A 
ATOM     14  C   UNL     1      20.688   5.039 -12.609  1.00  0.00     0.001 A 
ATOM     15  C   UNL     1      20.858   5.776 -11.442  1.00  0.00     0.014 A 
ENDBRANCH   3   6
ENDBRANCH   1   2
BRANCH   1  16
ATOM     16  C   UNL     1      20.507   9.907  -8.488  1.00  0.00     0.099 C 
BRANCH  16  17
ATOM     17  N   UNL     1      19.354   9.074  -8.857  1.00  0.00    -0.329 NA
ATOM     18  H   UNL     1      19.352   8.975  -9.870  1.00  0.00     0.118 HD
ATOM     19  H   UNL     1      18.500   9.585  -8.632  1.00  0.00     0.118 HD
ENDBRANCH  16  17
ENDBRANCH   1  16
TORSDOF 4
ENDMDL
MODEL 4
REMARK VINA RESULT:    -5.444     11.691     13.621
REMARK INTER + INTRA:          -6.797
REMARK INTER:                  -6.537
REMARK INTRA:                  -0.260
REMARK UNBOUND:                -0.239
REMARK SMILES NCCNC(=O)c1cccc2ccccc12
REMARK SMILES IDX 3 1 4 2 5 3 6 4 7 6 13 7 14 8 12 9 15 10 11 11 16 12 10 13
REMARK SMILES IDX 9 14 8 15 2 16 1 17
REMARK H PARENT 4 5 1 18 1 19
ROOT
ATOM      1  C   UNL     1      22.707   8.877  -7.420  1.00  0.00     0.131 C 
ENDROOT
BRANCH   1   2
ATOM      2  N   UNL     1      22.084   7.930  -8.334  1.00  0.00    -0.351 N 
ATOM      3  C   UNL     1      21.700   8.296  -9.606  1.00  0.00     0.251 C 
ATOM      4  O   UNL     1      21.881   9.425 -10.052  1.00  0.00    -0.269 OA
ATOM      5  H   UNL     1      22.040   6.960  -8.052  1.00  0.00     0.163 HD
BRANCH   3   6
ATOM      6  C   UNL     1      21.109   7.237 -10.479  1.00  0.00     0.047 A 
ATOM      7  C   UNL     1      23.191   4.740 -13.250  1.00  0.00     0.001 A 
ATOM      8  C   UNL     1      23.922   5.606 -12.454  1.00  0.00     0.001 A 
ATOM      9  C   UNL     1      21.810   4.665 -13.096  1.00  0.00     0.009 A 
ATOM     10  C   UNL     1      23.266   6.414 -11.520  1.00  0.00     0.009 A 
ATOM     11  C   UNL     1      21.136   5.476 -12.167  1.00  0.00    -0.018 A 
ATOM     12  C   UNL     1      21.855   6.409 -11.374  1.00  0.00    -0.006 A 
ATOM     13  C   UNL     1      19.747   5.346 -12.023  1.00  0.00     0.009 A 
ATOM     14  C   UNL     1      19.040   6.131 -11.120  1.00  0.00     0.001 A 
ATOM     15  C   UNL     1      19.717   7.077 -10.357  1.00  0.00     0.014 A 
ENDBRANCH   3   6
ENDBRANCH   1   2
BRANCH   1  16
ATOM     16  C   UNL     1      22.826   8.346  -5.983  1.00  0.00     0.099 C 
BRANCH  16  17
ATOM     17  N   UNL     1      22.290   6.984  -5.846  1.00  0.00    -0.329 NA
ATOM     18  H   UNL     1      22.989   6.421  -5.366  1.00  0.00     0.118 HD
ATOM     19  H   UNL     1      22.203   6.576  -6.777  1.00  0.00     0.118 HD
ENDBRANCH  16  17
ENDBRANCH   1  16
TORSDOF 4
ENDMDL
MODEL 5
REMARK VINA RESULT:    -5.117      8.473     10.600
REMARK INTER + INTRA:          -6.403
REMARK INTER:                  -6.155
REMARK INTRA:                  -0.249
REMARK UNBOUND:                -0.239
REMARK SMILES NCCNC(=O)c1cccc2ccccc12
REMARK SMILES IDX 3 1 4 2 5 3 6 4 7 6 13 7 14 8 12 9 15 10 11 11 16 12 10 13
REMARK SMILES IDX 9 14 8 15 2 16 1 17
REMARK H PARENT 4 5 1 18 1 19
ROOT
ATOM      1  C   UNL     1      23.681   1.750 -16.152  1.00  0.00     0.131 C 
ENDROOT
BRANCH   1   2
ATOM      2  N   UNL     1      23.889   2.579 -14.972  1.00  0.00    -0.351 N 
ATOM      3  C   UNL     1      23.938   3.953 -15.053  1.00  0.00     0.251 C 
ATOM      4  O   UNL     1      23.786   4.560 -16.109  1.00  0.00    -0.269 OA
ATOM      5  H   UNL     1      23.885   2.124 -14.069  1.00  0.00     0.163 HD
BRANCH   3   6
ATOM      6  C   UNL     1      24.114   4.712 -13.778  1.00  0.00     0.047 A 
ATOM      7  C   UNL     1      21.027   6.059 -11.150  1.00  0.00     0.001 A 
ATOM      8  C   UNL     1      20.679   5.284 -12.243  1.00  0.00     0.001 A 
ATOM      9  C   UNL     1      22.368   6.337 -10.902  1.00  0.00     0.009 A 
ATOM     10  C   UNL     1      21.675   4.809 -13.104  1.00  0.00     0.009 A 
ATOM     11  C   UNL     1      23.378   5.873 -11.762  1.00  0.00    -0.018 A 
ATOM     12  C   UNL     1      23.046   5.119 -12.918  1.00  0.00    -0.006 A 
ATOM     13  C   UNL     1      24.719   6.151 -11.458  1.00  0.00     0.009 A 
ATOM     14  C   UNL     1      25.749   5.714 -12.283  1.00  0.00     0.001 A 
ATOM     15  C   UNL     1      25.447   5.005 -13.440  1.00  0.00     0.014 A 
ENDBRANCH   3   6
ENDBRANCH   1   2
BRANCH   1  16
ATOM     16  C   UNL     1      22.197   1.535 -16.488  1.00  0.00     0.099 C 
BRANCH  16  17
ATOM     17  N   UNL     1      21.686   0.262 -15.960  1.00  0.00    -0.329 NA
ATOM     18  H   UNL     1      22.439  -0.185 -15.441  1.00  0.00     0.118 HD
ATOM     19  H   UNL     1      21.489  -0.359 -16.745  1.00  0.00     0.118 HD
ENDBRANCH  16  17
ENDBRANCH   1  16
TORSDOF 4
ENDMDL
MODEL 6
REMARK VINA RESULT:    -4.975     12.335     13.996
REMARK INTER + INTRA:          -6.232
REMARK INTER:                  -5.989
REMARK INTRA:                  -0.243
REMARK UNBOUND:                -0.239
REMARK SMILES NCCNC(=O)c1cccc2ccccc12
REMARK SMILES IDX 3 1 4 2 5 3 6 4 7 6 13 7 14 8 12 9 15 10 11 11 16 12 10 13
REMARK SMILES IDX 9 14 8 15 2 16 1 17
REMARK H PARENT 4 5 1 18 1 19
ROOT
ATOM      1  C   UNL     1      32.876   0.947 -22.383  1.00  0.00     0.131 C 
ENDROOT
BRANCH   1   2
ATOM      2  N   UNL     1      32.208   0.873 -21.091  1.00  0.00    -0.351 N 
ATOM      3  C   UNL     1      32.799   1.351 -19.942  1.00  0.00     0.251 C 
ATOM      4  O   UNL     1      33.904   1.886 -19.939  1.00  0.00    -0.269 OA
ATOM      5  H   UNL     1      31.245   0.562 -21.074  1.00  0.00     0.163 HD
BRANCH   3   6
ATOM      6  C   UNL     1      32.011   1.265 -18.675  1.00  0.00     0.047 A 
ATOM      7  C   UNL     1      29.949   4.454 -16.718  1.00  0.00     0.001 A 
ATOM      8  C   UNL     1      30.551   4.701 -17.940  1.00  0.00     0.001 A 
ATOM      9  C   UNL     1      29.983   3.170 -16.181  1.00  0.00     0.009 A 
ATOM     10  C   UNL     1      31.209   3.666 -18.613  1.00  0.00     0.009 A 
ATOM     11  C   UNL     1      30.647   2.122 -16.843  1.00  0.00    -0.018 A 
ATOM     12  C   UNL     1      31.316   2.360 -18.072  1.00  0.00    -0.006 A 
ATOM     13  C   UNL     1      30.631   0.837 -16.282  1.00  0.00     0.009 A 
ATOM     14  C   UNL     1      31.278  -0.227 -16.900  1.00  0.00     0.001 A 
ATOM     15  C   UNL     1      31.970  -0.011 -18.086  1.00  0.00     0.014 A 
ENDBRANCH   3   6
ENDBRANCH   1   2
BRANCH   1  16
ATOM     16  C   UNL     1      33.611  -0.348 -22.762  1.00  0.00     0.099 C 
BRANCH  16  17
ATOM     17  N   UNL     1      32.873  -1.135 -23.760  1.00  0.00    -0.329 NA
ATOM     18  H   UNL     1      31.914  -1.234 -23.432  1.00  0.00     0.118 HD
ATOM     19  H   UNL     1      33.255  -2.081 -23.773  1.00  0.00     0.118 HD
ENDBRANCH  16  17
ENDBRANCH   1  16
TORSDOF 4
ENDMDL
MODEL 7
REMARK VINA RESULT:    -4.898     13.515     14.618
REMARK INTER + INTRA:          -6.139
REMARK INTER:                  -5.784
REMARK INTRA:                  -0.356
REMARK UNBOUND:                -0.239
REMARK SMILES NCCNC(=O)c1cccc2ccccc12
REMARK SMILES IDX 3 1 4 2 5 3 6 4 7 6 13 7 14 8 12 9 15 10 11 11 16 12 10 13
REMARK SMILES IDX 9 14 8 15 2 16 1 17
REMARK H PARENT 4 5 1 18 1 19
ROOT
ATOM      1  C   UNL     1      14.153   5.834 -18.507  1.00  0.00     0.131 C 
ENDROOT
BRANCH   1   2
ATOM      2  N   UNL     1      14.077   4.938 -19.653  1.00  0.00    -0.351 N 
ATOM      3  C   UNL     1      14.425   3.608 -19.557  1.00  0.00     0.251 C 
ATOM      4  O   UNL     1      14.793   3.095 -18.504  1.00  0.00    -0.269 OA
ATOM      5  H   UNL     1      13.653   5.291 -20.501  1.00  0.00     0.163 HD
BRANCH   3   6
ATOM      6  C   UNL     1      14.270   2.765 -20.781  1.00  0.00     0.047 A 
ATOM      7  C   UNL     1      17.340   1.663 -23.540  1.00  0.00     0.001 A 
ATOM      8  C   UNL     1      17.689   2.375 -22.404  1.00  0.00     0.001 A 
ATOM      9  C   UNL     1      16.017   1.279 -23.731  1.00  0.00     0.009 A 
ATOM     10  C   UNL     1      16.706   2.725 -21.472  1.00  0.00     0.009 A 
ATOM     11  C   UNL     1      15.017   1.630 -22.807  1.00  0.00    -0.018 A 
ATOM     12  C   UNL     1      15.338   2.403 -21.661  1.00  0.00    -0.006 A 
ATOM     13  C   UNL     1      13.700   1.196 -23.023  1.00  0.00     0.009 A 
ATOM     14  C   UNL     1      12.680   1.524 -22.138  1.00  0.00     0.001 A 
ATOM     15  C   UNL     1      12.963   2.310 -21.027  1.00  0.00     0.014 A 
ENDBRANCH   3   6
ENDBRANCH   1   2
BRANCH   1  16
ATOM     16  C   UNL     1      13.002   5.641 -17.508  1.00  0.00     0.099 C 
BRANCH  16  17
ATOM     17  N   UNL     1      13.458   5.056 -16.239  1.00  0.00    -0.329 NA
ATOM     18  H   UNL     1      13.875   4.150 -16.446  1.00  0.00     0.118 HD
ATOM     19  H   UNL     1      12.641   4.855 -15.663  1.00  0.00     0.118 HD
ENDBRANCH  16  17
ENDBRANCH   1  16
TORSDOF 4
ENDMDL
MODEL 8
REMARK VINA RESULT:    -4.877     11.174     13.486
REMARK INTER + INTRA:          -6.114
REMARK INTER:                  -5.825
REMARK INTRA:                  -0.289
REMARK UNBOUND:                -0.239
REMARK SMILES NCCNC(=O)c1cccc2ccccc12
REMARK SMILES IDX 3 1 4 2 5 3 6 4 7 6 13 7 14 8 12 9 15 10 11 11 16 12 10 13
REMARK SMILES IDX 9 14 8 15 2 16 1 17
REMARK H PARENT 4 5 1 18 1 19
ROOT
ATOM      1  C   UNL     1      14.687   2.501 -22.516  1.00  0.00     0.131 C 
ENDROOT
BRANCH   1   2
ATOM      2  N   UNL     1      16.098   2.856 -22.575  1.00  0.00    -0.351 N 
ATOM      3  C   UNL     1      17.016   2.068 -23.234  1.00  0.00     0.251 C 
ATOM      4  O   UNL     1      16.701   1.041 -23.829  1.00  0.00    -0.269 OA
ATOM      5  H   UNL     1      16.374   3.760 -22.213  1.00  0.00     0.163 HD
BRANCH   3   6
ATOM      6  C   UNL     1      18.432   2.544 -23.272  1.00  0.00     0.047 A 
ATOM      7  C   UNL     1      21.642   1.239 -20.774  1.00  0.00     0.001 A 
ATOM      8  C   UNL     1      20.412   0.614 -20.658  1.00  0.00     0.001 A 
ATOM      9  C   UNL     1      21.821   2.235 -21.729  1.00  0.00     0.009 A 
ATOM     10  C   UNL     1      19.352   1.005 -21.484  1.00  0.00     0.009 A 
ATOM     11  C   UNL     1      20.763   2.644 -22.560  1.00  0.00    -0.018 A 
ATOM     12  C   UNL     1      19.478   2.056 -22.428  1.00  0.00    -0.006 A 
ATOM     13  C   UNL     1      20.995   3.630 -23.530  1.00  0.00     0.009 A 
ATOM     14  C   UNL     1      19.977   4.067 -24.370  1.00  0.00     0.001 A 
ATOM     15  C   UNL     1      18.701   3.532 -24.236  1.00  0.00     0.014 A 
ENDBRANCH   3   6
ENDBRANCH   1   2
BRANCH   1  16
ATOM     16  C   UNL     1      14.151   2.379 -21.081  1.00  0.00     0.099 C 
BRANCH  16  17
ATOM     17  N   UNL     1      15.218   2.489 -20.076  1.00  0.00    -0.329 NA
ATOM     18  H   UNL     1      15.729   1.608 -20.066  1.00  0.00     0.118 HD
ATOM     19  H   UNL     1      14.789   2.566 -19.155  1.00  0.00     0.118 HD
ENDBRANCH  16  17
ENDBRANCH   1  16
TORSDOF 4
ENDMDL
MODEL 9
REMARK VINA RESULT:    -4.755     11.064     12.780
REMARK INTER + INTRA:          -5.967
REMARK INTER:                  -5.711
REMARK INTRA:                  -0.256
REMARK UNBOUND:                -0.239
REMARK SMILES NCCNC(=O)c1cccc2ccccc12
REMARK SMILES IDX 3 1 4 2 5 3 6 4 7 6 13 7 14 8 12 9 15 10 11 11 16 12 10 13
REMARK SMILES IDX 9 14 8 15 2 16 1 17
REMARK H PARENT 4 5 1 18 1 19
ROOT
ATOM      1  C   UNL     1      26.561   2.234 -19.965  1.00  0.00     0.131 C 
ENDROOT
BRANCH   1   2
ATOM      2  N   UNL     1      27.918   1.857 -19.595  1.00  0.00    -0.351 N 
ATOM      3  C   UNL     1      28.293   1.705 -18.278  1.00  0.00     0.251 C 
ATOM      4  O   UNL     1      27.509   1.852 -17.345  1.00  0.00    -0.269 OA
ATOM      5  H   UNL     1      28.555   1.597 -20.336  1.00  0.00     0.163 HD
BRANCH   3   6
ATOM      6  C   UNL     1      29.698   1.274 -18.007  1.00  0.00     0.047 A 
ATOM      7  C   UNL     1      33.145   3.783 -17.751  1.00  0.00     0.001 A 
ATOM      8  C   UNL     1      31.903   4.373 -17.916  1.00  0.00     0.001 A 
ATOM      9  C   UNL     1      33.239   2.401 -17.620  1.00  0.00     0.009 A 
ATOM     10  C   UNL     1      30.756   3.574 -17.976  1.00  0.00     0.009 A 
ATOM     11  C   UNL     1      32.096   1.585 -17.686  1.00  0.00    -0.018 A 
ATOM     12  C   UNL     1      30.816   2.159 -17.906  1.00  0.00    -0.006 A 
ATOM     13  C   UNL     1      32.232   0.199 -17.519  1.00  0.00     0.009 A 
ATOM     14  C   UNL     1      31.129  -0.645 -17.581  1.00  0.00     0.001 A 
ATOM     15  C   UNL     1      29.871  -0.111 -17.831  1.00  0.00     0.014 A 
ENDBRANCH   3   6
ENDBRANCH   1   2
BRANCH   1  16
ATOM     16  C   UNL     1      26.403   2.542 -21.462  1.00  0.00     0.099 C 
BRANCH  16  17
ATOM     17  N   UNL     1      27.036   1.522 -22.310  1.00  0.00    -0.329 NA
ATOM     18  H   UNL     1      26.959   1.829 -23.278  1.00  0.00     0.118 HD
ATOM     19  H   UNL     1      26.486   0.665 -22.251  1.00  0.00     0.118 HD
ENDBRANCH  16  17
ENDBRANCH   1  16
TORSDOF 4
ENDMDL
