MODEL 1
REMARK VINA RESULT:    -5.499      0.000      0.000
REMARK INTER + INTRA:          -5.660
REMARK INTER:                  -5.660
REMARK INTRA:                   0.000
REMARK UNBOUND:                 0.000
REMARK SMILES C[C@]12CC[C@H]3[C@@H](CCC4=CC(=O)CC[C@@]43C)[C@@H]1CC[C@H]2O
REMARK SMILES IDX 1 1 2 2 3 3 4 4 5 5 6 6 17 7 18 8 19 9 20 10 7 11 8 12 9 13
REMARK SMILES IDX 10 14 11 15 12 16 13 17 14 18 15 19 16 20 21 21
REMARK H PARENT 21 22
ROOT
ATOM      1  C   UNL     1       6.716   6.506  -6.413  1.00  0.00     0.014 C 
ATOM      2  C   UNL     1       6.716   5.258  -5.489  1.00  0.00    -0.003 C 
ATOM      3  C   UNL     1       5.280   4.734  -5.307  1.00  0.00     0.010 C 
ATOM      4  C   UNL     1       4.344   5.804  -4.663  1.00  0.00     0.005 C 
ATOM      5  C   UNL     1       4.914   6.559  -3.407  1.00  0.00     0.002 C 
ATOM      6  C   UNL     1       6.465   6.632  -3.412  1.00  0.00    -0.003 C 
ATOM      7  C   UNL     1       7.221   5.497  -4.059  1.00  0.00     0.001 C 
ATOM      8  C   UNL     1       8.715   5.755  -4.250  1.00  0.00     0.007 C 
ATOM      9  C   UNL     1       9.122   4.771  -5.348  1.00  0.00     0.032 C 
ATOM     10  C   UNL     1       7.812   4.320  -6.045  1.00  0.00     0.120 C 
ATOM     11  C   UNL     1       6.894   6.882  -1.976  1.00  0.00     0.008 C 
ATOM     12  C   UNL     1       6.743   8.376  -1.795  1.00  0.00     0.032 C 
ATOM     13  C   UNL     1       5.340   8.855  -2.115  1.00  0.00    -0.060 C 
ATOM     14  C   UNL     1       4.949   9.921  -1.395  1.00  0.00     0.047 C 
ATOM     15  C   UNL     1       3.542  10.355  -1.384  1.00  0.00     0.155 C 
ATOM     16  O   UNL     1       3.236  11.384  -0.792  1.00  0.00    -0.295 OA
ATOM     17  C   UNL     1       2.517   9.528  -2.100  1.00  0.00     0.081 C 
ATOM     18  C   UNL     1       3.001   8.087  -2.375  1.00  0.00     0.019 C 
ATOM     19  C   UNL     1       4.386   8.062  -3.090  1.00  0.00    -0.008 C 
ATOM     20  C   UNL     1       4.192   8.807  -4.431  1.00  0.00     0.016 C 
ENDROOT
BRANCH  10  21
ATOM     21  O   UNL     1       7.552   2.952  -5.770  1.00  0.00    -0.393 OA
ATOM     22  H   UNL     1       7.062   2.581  -6.524  1.00  0.00     0.210 HD
ENDBRANCH  10  21
TORSDOF 1
ENDMDL
MODEL 2
REMARK VINA RESULT:    -5.389      9.057     11.691
REMARK INTER + INTRA:          -5.546
REMARK INTER:                  -5.546
REMARK INTRA:                   0.000
REMARK UNBOUND:                 0.000
REMARK SMILES C[C@]12CC[C@H]3[C@@H](CCC4=CC(=O)CC[C@@]43C)[C@@H]1CC[C@H]2O
REMARK SMILES IDX 1 1 2 2 3 3 4 4 5 5 6 6 17 7 18 8 19 9 20 10 7 11 8 12 9 13
REMARK SMILES IDX 10 14 11 15 12 16 13 17 14 18 15 19 16 20 21 21
REMARK H PARENT 21 22
ROOT
ATOM      1  C   UNL     1      -2.005   2.606   5.301  1.00  0.00     0.014 C 
ATOM      2  C   UNL     1      -1.055   3.812   5.528  1.00  0.00    -0.003 C 
ATOM      3  C   UNL     1      -1.161   4.799   4.352  1.00  0.00     0.010 C 
ATOM      4  C   UNL     1      -0.771   4.136   2.994  1.00  0.00     0.005 C 
ATOM      5  C   UNL     1       0.547   3.278   2.994  1.00  0.00     0.002 C 
ATOM      6  C   UNL     1       0.868   2.682   4.391  1.00  0.00    -0.003 C 
ATOM      7  C   UNL     1       0.440   3.468   5.607  1.00  0.00     0.001 C 
ATOM      8  C   UNL     1       0.559   2.711   6.929  1.00  0.00     0.007 C 
ATOM      9  C   UNL     1      -0.388   3.457   7.868  1.00  0.00     0.032 C 
ATOM     10  C   UNL     1      -1.329   4.300   6.969  1.00  0.00     0.120 C 
ATOM     11  C   UNL     1       2.351   2.353   4.395  1.00  0.00     0.008 C 
ATOM     12  C   UNL     1       2.439   1.008   3.711  1.00  0.00     0.032 C 
ATOM     13  C   UNL     1       1.811   1.024   2.330  1.00  0.00    -0.060 C 
ATOM     14  C   UNL     1       2.390   0.181   1.457  1.00  0.00     0.047 C 
ATOM     15  C   UNL     1       2.086   0.251   0.018  1.00  0.00     0.155 C 
ATOM     16  O   UNL     1       2.560  -0.590  -0.737  1.00  0.00    -0.295 OA
ATOM     17  C   UNL     1       1.202   1.351  -0.489  1.00  0.00     0.081 C 
ATOM     18  C   UNL     1       1.092   2.531   0.503  1.00  0.00     0.019 C 
ATOM     19  C   UNL     1       0.687   2.057   1.933  1.00  0.00    -0.008 C 
ATOM     20  C   UNL     1      -0.692   1.374   1.785  1.00  0.00     0.016 C 
ENDROOT
BRANCH  10  21
ATOM     21  O   UNL     1      -1.063   5.685   7.138  1.00  0.00    -0.393 OA
ATOM     22  H   UNL     1      -1.163   6.118   6.272  1.00  0.00     0.210 HD
ENDBRANCH  10  21
TORSDOF 1
ENDMDL
MODEL 3
REMARK VINA RESULT:    -5.291      8.665     11.404
REMARK INTER + INTRA:          -5.446
REMARK INTER:                  -5.446
REMARK INTRA:                   0.000
REMARK UNBOUND:                 0.000
REMARK SMILES C[C@]12CC[C@H]3[C@@H](CCC4=CC(=O)CC[C@@]43C)[C@@H]1CC[C@H]2O
REMARK SMILES IDX 1 1 2 2 3 3 4 4 5 5 6 6 17 7 18 8 19 9 20 10 7 11 8 12 9 13
REMARK SMILES IDX 10 14 11 15 12 16 13 17 14 18 15 19 16 20 21 21
REMARK H PARENT 21 22
ROOT
ATOM      1  C   UNL     1      -2.022   3.245   4.065  1.00  0.00     0.014 C 
ATOM      2  C   UNL     1      -0.988   4.403   4.055  1.00  0.00    -0.003 C 
ATOM      3  C   UNL     1      -0.749   4.888   2.614  1.00  0.00     0.010 C 
ATOM      4  C   UNL     1      -0.199   3.751   1.698  1.00  0.00     0.005 C 
ATOM      5  C   UNL     1       0.979   2.892   2.288  1.00  0.00     0.002 C 
ATOM      6  C   UNL     1       0.957   2.842   3.839  1.00  0.00    -0.003 C 
ATOM      7  C   UNL     1       0.411   4.042   4.575  1.00  0.00     0.001 C 
ATOM      8  C   UNL     1       0.186   3.823   6.071  1.00  0.00     0.007 C 
ATOM      9  C   UNL     1      -0.820   4.909   6.456  1.00  0.00     0.032 C 
ATOM     10  C   UNL     1      -1.464   5.403   5.134  1.00  0.00     0.120 C 
ATOM     11  C   UNL     1       2.361   2.468   4.284  1.00  0.00     0.008 C 
ATOM     12  C   UNL     1       2.407   0.962   4.155  1.00  0.00     0.032 C 
ATOM     13  C   UNL     1       2.054   0.495   2.755  1.00  0.00    -0.060 C 
ATOM     14  C   UNL     1       2.676  -0.638   2.385  1.00  0.00     0.047 C 
ATOM     15  C   UNL     1       2.657  -1.091   0.983  1.00  0.00     0.155 C 
ATOM     16  O   UNL     1       3.155  -2.173   0.696  1.00  0.00    -0.295 OA
ATOM     17  C   UNL     1       2.027  -0.217  -0.058  1.00  0.00     0.081 C 
ATOM     18  C   UNL     1       1.881   1.251   0.404  1.00  0.00     0.019 C 
ATOM     19  C   UNL     1       1.161   1.360   1.783  1.00  0.00    -0.008 C 
ATOM     20  C   UNL     1      -0.240   0.737   1.588  1.00  0.00     0.016 C 
ENDROOT
BRANCH  10  21
ATOM     21  O   UNL     1      -1.063   6.737   4.858  1.00  0.00    -0.393 OA
ATOM     22  H   UNL     1      -0.491   7.035   5.586  1.00  0.00     0.210 HD
ENDBRANCH  10  21
TORSDOF 1
ENDMDL
MODEL 4
REMARK VINA RESULT:    -5.202      9.812     11.995
REMARK INTER + INTRA:          -5.354
REMARK INTER:                  -5.354
REMARK INTRA:                   0.000
REMARK UNBOUND:                 0.000
REMARK SMILES C[C@]12CC[C@H]3[C@@H](CCC4=CC(=O)CC[C@@]43C)[C@@H]1CC[C@H]2O
REMARK SMILES IDX 1 1 2 2 3 3 4 4 5 5 6 6 17 7 18 8 19 9 20 10 7 11 8 12 9 13
REMARK SMILES IDX 10 14 11 15 12 16 13 17 14 18 15 19 16 20 21 21
REMARK H PARENT 21 22
ROOT
ATOM      1  C   UNL     1      -1.574   1.950   6.819  1.00  0.00     0.014 C 
ATOM      2  C   UNL     1      -0.408   2.820   7.359  1.00  0.00    -0.003 C 
ATOM      3  C   UNL     1      -0.653   4.302   7.024  1.00  0.00     0.010 C 
ATOM      4  C   UNL     1      -0.754   4.544   5.485  1.00  0.00     0.005 C 
ATOM      5  C   UNL     1       0.352   3.861   4.600  1.00  0.00     0.002 C 
ATOM      6  C   UNL     1       0.925   2.576   5.255  1.00  0.00    -0.003 C 
ATOM      7  C   UNL     1       0.973   2.514   6.762  1.00  0.00     0.001 C 
ATOM      8  C   UNL     1       1.308   1.136   7.333  1.00  0.00     0.007 C 
ATOM      9  C   UNL     1       0.784   1.194   8.768  1.00  0.00     0.032 C 
ATOM     10  C   UNL     1      -0.205   2.387   8.830  1.00  0.00     0.120 C 
ATOM     11  C   UNL     1       2.279   2.325   4.612  1.00  0.00     0.008 C 
ATOM     12  C   UNL     1       1.953   1.618   3.315  1.00  0.00     0.032 C 
ATOM     13  C   UNL     1       0.994   2.415   2.452  1.00  0.00    -0.060 C 
ATOM     14  C   UNL     1       1.170   2.235   1.131  1.00  0.00     0.047 C 
ATOM     15  C   UNL     1       0.513   3.116   0.150  1.00  0.00     0.155 C 
ATOM     16  O   UNL     1       0.621   2.868  -1.045  1.00  0.00    -0.295 OA
ATOM     17  C   UNL     1      -0.274   4.294   0.639  1.00  0.00     0.081 C 
ATOM     18  C   UNL     1       0.083   4.688   2.090  1.00  0.00     0.019 C 
ATOM     19  C   UNL     1      -0.003   3.473   3.064  1.00  0.00    -0.008 C 
ATOM     20  C   UNL     1      -1.466   2.979   3.007  1.00  0.00     0.016 C 
ENDROOT
BRANCH  10  21
ATOM     21  O   UNL     1       0.327   3.428   9.637  1.00  0.00    -0.393 OA
ATOM     22  H   UNL     1      -0.365   3.708  10.261  1.00  0.00     0.210 HD
ENDBRANCH  10  21
TORSDOF 1
ENDMDL
MODEL 5
REMARK VINA RESULT:    -5.178      9.437     10.872
REMARK INTER + INTRA:          -5.329
REMARK INTER:                  -5.329
REMARK INTRA:                   0.000
REMARK UNBOUND:                 0.000
REMARK SMILES C[C@]12CC[C@H]3[C@@H](CCC4=CC(=O)CC[C@@]43C)[C@@H]1CC[C@H]2O
REMARK SMILES IDX 1 1 2 2 3 3 4 4 5 5 6 6 17 7 18 8 19 9 20 10 7 11 8 12 9 13
REMARK SMILES IDX 10 14 11 15 12 16 13 17 14 18 15 19 16 20 21 21
REMARK H PARENT 21 22
ROOT
ATOM      1  C   UNL     1      -0.524   0.781   1.772  1.00  0.00     0.014 C 
ATOM      2  C   UNL     1       0.569   1.774   1.292  1.00  0.00    -0.003 C 
ATOM      3  C   UNL     1       1.952   1.325   1.798  1.00  0.00     0.010 C 
ATOM      4  C   UNL     1       2.014   1.266   3.356  1.00  0.00     0.005 C 
ATOM      5  C   UNL     1       1.423   2.505   4.122  1.00  0.00     0.002 C 
ATOM      6  C   UNL     1       0.318   3.233   3.310  1.00  0.00    -0.003 C 
ATOM      7  C   UNL     1       0.422   3.214   1.804  1.00  0.00     0.001 C 
ATOM      8  C   UNL     1      -0.820   3.724   1.074  1.00  0.00     0.007 C 
ATOM      9  C   UNL     1      -0.696   3.125  -0.327  1.00  0.00     0.032 C 
ATOM     10  C   UNL     1       0.329   1.966  -0.224  1.00  0.00     0.120 C 
ATOM     11  C   UNL     1       0.215   4.639   3.875  1.00  0.00     0.008 C 
ATOM     12  C   UNL     1      -0.665   4.490   5.096  1.00  0.00     0.032 C 
ATOM     13  C   UNL     1      -0.121   3.467   6.074  1.00  0.00    -0.060 C 
ATOM     14  C   UNL     1      -0.408   3.734   7.360  1.00  0.00     0.047 C 
ATOM     15  C   UNL     1       0.252   3.001   8.454  1.00  0.00     0.155 C 
ATOM     16  O   UNL     1      -0.099   3.206   9.610  1.00  0.00    -0.295 OA
ATOM     17  C   UNL     1       1.338   2.022   8.126  1.00  0.00     0.081 C 
ATOM     18  C   UNL     1       1.932   2.242   6.716  1.00  0.00     0.019 C 
ATOM     19  C   UNL     1       0.827   2.291   5.617  1.00  0.00    -0.008 C 
ATOM     20  C   UNL     1       0.108   0.924   5.668  1.00  0.00     0.016 C 
ENDROOT
BRANCH  10  21
ATOM     21  O   UNL     1       1.518   2.293  -0.928  1.00  0.00    -0.393 OA
ATOM     22  H   UNL     1       2.048   2.883  -0.365  1.00  0.00     0.210 HD
ENDBRANCH  10  21
TORSDOF 1
ENDMDL
MODEL 6
REMARK VINA RESULT:    -5.061     13.694     14.631
REMARK INTER + INTRA:          -5.209
REMARK INTER:                  -5.209
REMARK INTRA:                   0.000
REMARK UNBOUND:                 0.000
REMARK SMILES C[C@]12CC[C@H]3[C@@H](CCC4=CC(=O)CC[C@@]43C)[C@@H]1CC[C@H]2O
REMARK SMILES IDX 1 1 2 2 3 3 4 4 5 5 6 6 17 7 18 8 19 9 20 10 7 11 8 12 9 13
REMARK SMILES IDX 10 14 11 15 12 16 13 17 14 18 15 19 16 20 21 21
REMARK H PARENT 21 22
ROOT
ATOM      1  C   UNL     1       5.709  -1.981   6.269  1.00  0.00     0.014 C 
ATOM      2  C   UNL     1       6.276  -2.540   7.602  1.00  0.00    -0.003 C 
ATOM      3  C   UNL     1       5.222  -3.420   8.298  1.00  0.00     0.010 C 
ATOM      4  C   UNL     1       3.922  -2.623   8.630  1.00  0.00     0.005 C 
ATOM      5  C   UNL     1       4.122  -1.214   9.298  1.00  0.00     0.002 C 
ATOM      6  C   UNL     1       5.481  -0.566   8.920  1.00  0.00    -0.003 C 
ATOM      7  C   UNL     1       6.649  -1.485   8.653  1.00  0.00     0.001 C 
ATOM      8  C   UNL     1       7.872  -0.798   8.045  1.00  0.00     0.007 C 
ATOM      9  C   UNL     1       8.652  -1.941   7.395  1.00  0.00     0.032 C 
ATOM     10  C   UNL     1       7.664  -3.128   7.257  1.00  0.00     0.120 C 
ATOM     11  C   UNL     1       5.782   0.472   9.988  1.00  0.00     0.008 C 
ATOM     12  C   UNL     1       4.990   1.688   9.562  1.00  0.00     0.032 C 
ATOM     13  C   UNL     1       3.514   1.382   9.392  1.00  0.00    -0.060 C 
ATOM     14  C   UNL     1       2.706   2.420   9.671  1.00  0.00     0.047 C 
ATOM     15  C   UNL     1       1.251   2.232   9.813  1.00  0.00     0.155 C 
ATOM     16  O   UNL     1       0.534   3.212   9.976  1.00  0.00    -0.295 OA
ATOM     17  C   UNL     1       0.684   0.846   9.751  1.00  0.00     0.081 C 
ATOM     18  C   UNL     1       1.750  -0.245  10.000  1.00  0.00     0.019 C 
ATOM     19  C   UNL     1       2.991  -0.072   9.072  1.00  0.00    -0.008 C 
ATOM     20  C   UNL     1       2.464  -0.183   7.623  1.00  0.00     0.016 C 
ENDROOT
BRANCH  10  21
ATOM     21  O   UNL     1       8.039  -4.187   8.126  1.00  0.00    -0.393 OA
ATOM     22  H   UNL     1       8.984  -4.371   7.984  1.00  0.00     0.210 HD
ENDBRANCH  10  21
TORSDOF 1
ENDMDL
MODEL 7
REMARK VINA RESULT:    -5.015      8.728      9.904
REMARK INTER + INTRA:          -5.162
REMARK INTER:                  -5.162
REMARK INTRA:                   0.000
REMARK UNBOUND:                 0.000
REMARK SMILES C[C@]12CC[C@H]3[C@@H](CCC4=CC(=O)CC[C@@]43C)[C@@H]1CC[C@H]2O
REMARK SMILES IDX 1 1 2 2 3 3 4 4 5 5 6 6 17 7 18 8 19 9 20 10 7 11 8 12 9 13
REMARK SMILES IDX 10 14 11 15 12 16 13 17 14 18 15 19 16 20 21 21
REMARK H PARENT 21 22
ROOT
ATOM      1  C   UNL     1       0.800  -0.955   3.005  1.00  0.00     0.014 C 
ATOM      2  C   UNL     1       2.057  -0.392   2.290  1.00  0.00    -0.003 C 
ATOM      3  C   UNL     1       3.067   0.133   3.327  1.00  0.00     0.010 C 
ATOM      4  C   UNL     1       2.465   1.276   4.202  1.00  0.00     0.005 C 
ATOM      5  C   UNL     1       1.693   2.408   3.430  1.00  0.00     0.002 C 
ATOM      6  C   UNL     1       1.082   1.904   2.095  1.00  0.00    -0.003 C 
ATOM      7  C   UNL     1       1.807   0.803   1.360  1.00  0.00     0.001 C 
ATOM      8  C   UNL     1       1.023   0.190   0.199  1.00  0.00     0.007 C 
ATOM      9  C   UNL     1       1.683  -1.173  -0.012  1.00  0.00     0.032 C 
ATOM     10  C   UNL     1       2.489  -1.478   1.277  1.00  0.00     0.120 C 
ATOM     11  C   UNL     1       0.847   3.133   1.232  1.00  0.00     0.008 C 
ATOM     12  C   UNL     1      -0.472   3.688   1.721  1.00  0.00     0.032 C 
ATOM     13  C   UNL     1      -0.459   3.970   3.211  1.00  0.00    -0.060 C 
ATOM     14  C   UNL     1      -1.241   5.001   3.578  1.00  0.00     0.047 C 
ATOM     15  C   UNL     1      -1.151   5.577   4.931  1.00  0.00     0.155 C 
ATOM     16  O   UNL     1      -1.940   6.454   5.262  1.00  0.00    -0.295 OA
ATOM     17  C   UNL     1      -0.097   5.075   5.870  1.00  0.00     0.081 C 
ATOM     18  C   UNL     1       1.047   4.335   5.141  1.00  0.00     0.019 C 
ATOM     19  C   UNL     1       0.511   3.214   4.199  1.00  0.00    -0.008 C 
ATOM     20  C   UNL     1      -0.253   2.221   5.103  1.00  0.00     0.016 C 
ENDROOT
BRANCH  10  21
ATOM     21  O   UNL     1       3.883  -1.451   1.007  1.00  0.00    -0.393 OA
ATOM     22  H   UNL     1       4.049  -0.745   0.358  1.00  0.00     0.210 HD
ENDBRANCH  10  21
TORSDOF 1
ENDMDL
MODEL 8
REMARK VINA RESULT:    -4.948     10.416     11.372
REMARK INTER + INTRA:          -5.093
REMARK INTER:                  -5.093
REMARK INTRA:                   0.000
REMARK UNBOUND:                 0.000
REMARK SMILES C[C@]12CC[C@H]3[C@@H](CCC4=CC(=O)CC[C@@]43C)[C@@H]1CC[C@H]2O
REMARK SMILES IDX 1 1 2 2 3 3 4 4 5 5 6 6 17 7 18 8 19 9 20 10 7 11 8 12 9 13
REMARK SMILES IDX 10 14 11 15 12 16 13 17 14 18 15 19 16 20 21 21
REMARK H PARENT 21 22
ROOT
ATOM      1  C   UNL     1       1.034  -1.452   2.857  1.00  0.00     0.014 C 
ATOM      2  C   UNL     1       2.358  -0.761   2.437  1.00  0.00    -0.003 C 
ATOM      3  C   UNL     1       3.483  -1.126   3.422  1.00  0.00     0.010 C 
ATOM      4  C   UNL     1       3.154  -0.677   4.879  1.00  0.00     0.005 C 
ATOM      5  C   UNL     1       2.607   0.788   5.047  1.00  0.00     0.002 C 
ATOM      6  C   UNL     1       1.867   1.294   3.780  1.00  0.00    -0.003 C 
ATOM      7  C   UNL     1       2.331   0.775   2.440  1.00  0.00     0.001 C 
ATOM      8  C   UNL     1       1.405   1.114   1.272  1.00  0.00     0.007 C 
ATOM      9  C   UNL     1       1.766   0.081   0.203  1.00  0.00     0.032 C 
ATOM     10  C   UNL     1       2.530  -1.057   0.929  1.00  0.00     0.120 C 
ATOM     11  C   UNL     1       1.864   2.811   3.853  1.00  0.00     0.008 C 
ATOM     12  C   UNL     1       0.700   3.140   4.763  1.00  0.00     0.032 C 
ATOM     13  C   UNL     1       0.814   2.454   6.110  1.00  0.00    -0.060 C 
ATOM     14  C   UNL     1       0.270   3.149   7.125  1.00  0.00     0.047 C 
ATOM     15  C   UNL     1       0.515   2.765   8.526  1.00  0.00     0.155 C 
ATOM     16  O   UNL     1      -0.068   3.364   9.422  1.00  0.00    -0.295 OA
ATOM     17  C   UNL     1       1.472   1.650   8.821  1.00  0.00     0.081 C 
ATOM     18  C   UNL     1       2.419   1.349   7.637  1.00  0.00     0.019 C 
ATOM     19  C   UNL     1       1.638   1.123   6.307  1.00  0.00    -0.008 C 
ATOM     20  C   UNL     1       0.713  -0.092   6.551  1.00  0.00     0.016 C 
ENDROOT
BRANCH  10  21
ATOM     21  O   UNL     1       3.891  -1.073   0.526  1.00  0.00    -0.393 OA
ATOM     22  H   UNL     1       4.290  -1.900   0.847  1.00  0.00     0.210 HD
ENDBRANCH  10  21
TORSDOF 1
ENDMDL
MODEL 9
REMARK VINA RESULT:    -4.936      8.955     11.378
REMARK INTER + INTRA:          -5.080
REMARK INTER:                  -5.080
REMARK INTRA:                   0.000
REMARK UNBOUND:                 0.000
REMARK SMILES C[C@]12CC[C@H]3[C@@H](CCC4=CC(=O)CC[C@@]43C)[C@@H]1CC[C@H]2O
REMARK SMILES IDX 1 1 2 2 3 3 4 4 5 5 6 6 17 7 18 8 19 9 20 10 7 11 8 12 9 13
REMARK SMILES IDX 10 14 11 15 12 16 13 17 14 18 15 19 16 20 21 21
REMARK H PARENT 21 22
ROOT
ATOM      1  C   UNL     1      -1.309   2.243   2.459  1.00  0.00     0.014 C 
ATOM      2  C   UNL     1      -0.184   3.311   2.435  1.00  0.00    -0.003 C 
ATOM      3  C   UNL     1       0.469   3.361   1.042  1.00  0.00     0.010 C 
ATOM      4  C   UNL     1       1.104   1.992   0.645  1.00  0.00     0.005 C 
ATOM      5  C   UNL     1       1.987   1.292   1.741  1.00  0.00     0.002 C 
ATOM      6  C   UNL     1       1.562   1.682   3.183  1.00  0.00    -0.003 C 
ATOM      7  C   UNL     1       0.985   3.060   3.398  1.00  0.00     0.001 C 
ATOM      8  C   UNL     1       0.361   3.280   4.776  1.00  0.00     0.007 C 
ATOM      9  C   UNL     1      -0.581   4.467   4.569  1.00  0.00     0.032 C 
ATOM     10  C   UNL     1      -0.805   4.592   3.040  1.00  0.00     0.120 C 
ATOM     11  C   UNL     1       2.754   1.397   4.081  1.00  0.00     0.008 C 
ATOM     12  C   UNL     1       2.661  -0.086   4.367  1.00  0.00     0.032 C 
ATOM     13  C   UNL     1       2.629  -0.915   3.097  1.00  0.00    -0.060 C 
ATOM     14  C   UNL     1       3.193  -2.128   3.223  1.00  0.00     0.047 C 
ATOM     15  C   UNL     1       3.483  -2.957   2.041  1.00  0.00     0.155 C 
ATOM     16  O   UNL     1       3.913  -4.094   2.196  1.00  0.00    -0.295 OA
ATOM     17  C   UNL     1       3.244  -2.389   0.674  1.00  0.00     0.081 C 
ATOM     18  C   UNL     1       3.151  -0.847   0.679  1.00  0.00     0.019 C 
ATOM     19  C   UNL     1       2.119  -0.326   1.725  1.00  0.00    -0.008 C 
ATOM     20  C   UNL     1       0.753  -0.926   1.318  1.00  0.00     0.016 C 
ENDROOT
BRANCH  10  21
ATOM     21  O   UNL     1      -0.199   5.779   2.548  1.00  0.00    -0.393 OA
ATOM     22  H   UNL     1      -0.832   6.214   1.951  1.00  0.00     0.210 HD
ENDBRANCH  10  21
TORSDOF 1
ENDMDL
