MODEL 1
REMARK VINA RESULT:    -6.703      0.000      0.000
REMARK INTER + INTRA:          -6.899
REMARK INTER:                  -6.899
REMARK INTRA:                   0.000
REMARK UNBOUND:                 0.000
REMARK SMILES C[C@]12CC[C@H]3[C@@H](CCC4=CC(=O)CC[C@@]43C)[C@@H]1CC[C@H]2O
REMARK SMILES IDX 1 1 2 2 3 3 4 4 5 5 6 6 17 7 18 8 19 9 20 10 7 11 8 12 9 13
REMARK SMILES IDX 10 14 11 15 12 16 13 17 14 18 15 19 16 20 21 21
REMARK H PARENT 21 22
ROOT
ATOM      1  C   UNL     1      -0.986   0.870   8.542  1.00  0.00     0.014 C 
ATOM      2  C   UNL     1      -1.208   1.044  10.068  1.00  0.00    -0.003 C 
ATOM      3  C   UNL     1      -0.796   2.460  10.506  1.00  0.00     0.010 C 
ATOM      4  C   UNL     1       0.708   2.751  10.208  1.00  0.00     0.005 C 
ATOM      5  C   UNL     1       1.727   1.629  10.626  1.00  0.00     0.002 C 
ATOM      6  C   UNL     1       1.086   0.216  10.630  1.00  0.00    -0.003 C 
ATOM      7  C   UNL     1      -0.382   0.110  10.965  1.00  0.00     0.001 C 
ATOM      8  C   UNL     1      -0.997  -1.265  10.704  1.00  0.00     0.007 C 
ATOM      9  C   UNL     1      -2.496  -0.985  10.594  1.00  0.00     0.032 C 
ATOM     10  C   UNL     1      -2.643   0.539  10.347  1.00  0.00     0.120 C 
ATOM     11  C   UNL     1       1.956  -0.656  11.520  1.00  0.00     0.008 C 
ATOM     12  C   UNL     1       3.096  -1.086  10.624  1.00  0.00     0.032 C 
ATOM     13  C   UNL     1       3.823   0.096  10.011  1.00  0.00    -0.060 C 
ATOM     14  C   UNL     1       5.131  -0.123   9.790  1.00  0.00     0.047 C 
ATOM     15  C   UNL     1       6.039   0.986   9.449  1.00  0.00     0.155 C 
ATOM     16  O   UNL     1       7.205   0.740   9.164  1.00  0.00    -0.295 OA
ATOM     17  C   UNL     1       5.512   2.390   9.456  1.00  0.00     0.081 C 
ATOM     18  C   UNL     1       4.200   2.529  10.261  1.00  0.00     0.019 C 
ATOM     19  C   UNL     1       3.124   1.496   9.809  1.00  0.00    -0.008 C 
ATOM     20  C   UNL     1       2.849   1.787   8.316  1.00  0.00     0.016 C 
ENDROOT
BRANCH  10  21
ATOM     21  O   UNL     1      -3.235   1.168  11.475  1.00  0.00    -0.393 OA
ATOM     22  H   UNL     1      -3.792   0.511  11.927  1.00  0.00     0.210 HD
ENDBRANCH  10  21
TORSDOF 1
ENDMDL
MODEL 2
REMARK VINA RESULT:    -6.577      1.288      6.420
REMARK INTER + INTRA:          -6.770
REMARK INTER:                  -6.770
REMARK INTRA:                   0.000
REMARK UNBOUND:                 0.000
REMARK SMILES C[C@]12CC[C@H]3[C@@H](CCC4=CC(=O)CC[C@@]43C)[C@@H]1CC[C@H]2O
REMARK SMILES IDX 1 1 2 2 3 3 4 4 5 5 6 6 17 7 18 8 19 9 20 10 7 11 8 12 9 13
REMARK SMILES IDX 10 14 11 15 12 16 13 17 14 18 15 19 16 20 21 21
REMARK H PARENT 21 22
ROOT
ATOM      1  C   UNL     1       4.205  -0.904   8.336  1.00  0.00     0.014 C 
ATOM      2  C   UNL     1       4.687  -0.668   9.792  1.00  0.00    -0.003 C 
ATOM      3  C   UNL     1       3.968  -1.633  10.752  1.00  0.00     0.010 C 
ATOM      4  C   UNL     1       2.420  -1.438  10.726  1.00  0.00     0.005 C 
ATOM      5  C   UNL     1       1.905   0.045  10.805  1.00  0.00     0.002 C 
ATOM      6  C   UNL     1       2.932   1.061  10.234  1.00  0.00    -0.003 C 
ATOM      7  C   UNL     1       4.398   0.728  10.364  1.00  0.00     0.001 C 
ATOM      8  C   UNL     1       5.330   1.638   9.564  1.00  0.00     0.007 C 
ATOM      9  C   UNL     1       6.612   0.817   9.419  1.00  0.00     0.032 C 
ATOM     10  C   UNL     1       6.232  -0.655   9.729  1.00  0.00     0.120 C 
ATOM     11  C   UNL     1       2.581   2.415  10.827  1.00  0.00     0.008 C 
ATOM     12  C   UNL     1       1.461   2.930   9.950  1.00  0.00     0.032 C 
ATOM     13  C   UNL     1       0.295   1.962   9.881  1.00  0.00    -0.060 C 
ATOM     14  C   UNL     1      -0.900   2.558   9.723  1.00  0.00     0.047 C 
ATOM     15  C   UNL     1      -2.153   1.803   9.897  1.00  0.00     0.155 C 
ATOM     16  O   UNL     1      -3.222   2.352   9.656  1.00  0.00    -0.295 OA
ATOM     17  C   UNL     1      -2.090   0.380  10.362  1.00  0.00     0.081 C 
ATOM     18  C   UNL     1      -0.742   0.031  11.032  1.00  0.00     0.019 C 
ATOM     19  C   UNL     1       0.474   0.415  10.134  1.00  0.00    -0.008 C 
ATOM     20  C   UNL     1       0.319  -0.399   8.829  1.00  0.00     0.016 C 
ENDROOT
BRANCH  10  21
ATOM     21  O   UNL     1       6.833  -1.075  10.945  1.00  0.00    -0.393 OA
ATOM     22  H   UNL     1       7.754  -0.760  10.950  1.00  0.00     0.210 HD
ENDBRANCH  10  21
TORSDOF 1
ENDMDL
MODEL 3
REMARK VINA RESULT:    -6.142      2.372      6.752
REMARK INTER + INTRA:          -6.322
REMARK INTER:                  -6.322
REMARK INTRA:                   0.000
REMARK UNBOUND:                 0.000
REMARK SMILES C[C@]12CC[C@H]3[C@@H](CCC4=CC(=O)CC[C@@]43C)[C@@H]1CC[C@H]2O
REMARK SMILES IDX 1 1 2 2 3 3 4 4 5 5 6 6 17 7 18 8 19 9 20 10 7 11 8 12 9 13
REMARK SMILES IDX 10 14 11 15 12 16 13 17 14 18 15 19 16 20 21 21
REMARK H PARENT 21 22
ROOT
ATOM      1  C   UNL     1       5.047  -2.857   8.003  1.00  0.00     0.014 C 
ATOM      2  C   UNL     1       6.008  -2.565   9.186  1.00  0.00    -0.003 C 
ATOM      3  C   UNL     1       5.350  -2.971  10.517  1.00  0.00     0.010 C 
ATOM      4  C   UNL     1       4.025  -2.189  10.776  1.00  0.00     0.005 C 
ATOM      5  C   UNL     1       4.076  -0.636  10.535  1.00  0.00     0.002 C 
ATOM      6  C   UNL     1       5.146  -0.234   9.485  1.00  0.00    -0.003 C 
ATOM      7  C   UNL     1       6.386  -1.090   9.380  1.00  0.00     0.001 C 
ATOM      8  C   UNL     1       7.266  -0.788   8.168  1.00  0.00     0.007 C 
ATOM      9  C   UNL     1       8.095  -2.060   7.988  1.00  0.00     0.032 C 
ATOM     10  C   UNL     1       7.371  -3.176   8.784  1.00  0.00     0.120 C 
ATOM     11  C   UNL     1       5.462   1.233   9.723  1.00  0.00     0.008 C 
ATOM     12  C   UNL     1       4.359   1.975   9.003  1.00  0.00     0.032 C 
ATOM     13  C   UNL     1       2.980   1.553   9.474  1.00  0.00    -0.060 C 
ATOM     14  C   UNL     1       2.060   2.532   9.418  1.00  0.00     0.047 C 
ATOM     15  C   UNL     1       0.749   2.381  10.072  1.00  0.00     0.155 C 
ATOM     16  O   UNL     1      -0.099   3.253   9.924  1.00  0.00    -0.295 OA
ATOM     17  C   UNL     1       0.484   1.161  10.903  1.00  0.00     0.081 C 
ATOM     18  C   UNL     1       1.781   0.439  11.332  1.00  0.00     0.019 C 
ATOM     19  C   UNL     1       2.711   0.137  10.117  1.00  0.00    -0.008 C 
ATOM     20  C   UNL     1       1.900  -0.776   9.170  1.00  0.00     0.016 C 
ENDROOT
BRANCH  10  21
ATOM     21  O   UNL     1       8.148  -3.566   9.907  1.00  0.00    -0.393 OA
ATOM     22  H   UNL     1       7.538  -3.788  10.632  1.00  0.00     0.210 HD
ENDBRANCH  10  21
TORSDOF 1
ENDMDL
MODEL 4
REMARK VINA RESULT:    -5.692      1.421      6.342
REMARK INTER + INTRA:          -5.859
REMARK INTER:                  -5.859
REMARK INTRA:                   0.000
REMARK UNBOUND:                 0.000
REMARK SMILES C[C@]12CC[C@H]3[C@@H](CCC4=CC(=O)CC[C@@]43C)[C@@H]1CC[C@H]2O
REMARK SMILES IDX 1 1 2 2 3 3 4 4 5 5 6 6 17 7 18 8 19 9 20 10 7 11 8 12 9 13
REMARK SMILES IDX 10 14 11 15 12 16 13 17 14 18 15 19 16 20 21 21
REMARK H PARENT 21 22
ROOT
ATOM      1  C   UNL     1       5.271  -0.576  10.746  1.00  0.00     0.014 C 
ATOM      2  C   UNL     1       5.567   0.134   9.399  1.00  0.00    -0.003 C 
ATOM      3  C   UNL     1       5.480   1.661   9.574  1.00  0.00     0.010 C 
ATOM      4  C   UNL     1       4.066   2.116  10.051  1.00  0.00     0.005 C 
ATOM      5  C   UNL     1       2.841   1.488   9.291  1.00  0.00     0.002 C 
ATOM      6  C   UNL     1       3.165   0.091   8.696  1.00  0.00    -0.003 C 
ATOM      7  C   UNL     1       4.585  -0.177   8.260  1.00  0.00     0.001 C 
ATOM      8  C   UNL     1       4.883  -1.638   7.926  1.00  0.00     0.007 C 
ATOM      9  C   UNL     1       6.404  -1.742   8.047  1.00  0.00     0.032 C 
ATOM     10  C   UNL     1       6.868  -0.506   8.860  1.00  0.00     0.120 C 
ATOM     11  C   UNL     1       2.153  -0.158   7.591  1.00  0.00     0.008 C 
ATOM     12  C   UNL     1       0.923  -0.660   8.314  1.00  0.00     0.032 C 
ATOM     13  C   UNL     1       0.450   0.307   9.382  1.00  0.00    -0.060 C 
ATOM     14  C   UNL     1      -0.880   0.296   9.578  1.00  0.00     0.047 C 
ATOM     15  C   UNL     1      -1.538   1.343  10.379  1.00  0.00     0.155 C 
ATOM     16  O   UNL     1      -2.737   1.253  10.614  1.00  0.00    -0.295 OA
ATOM     17  C   UNL     1      -0.723   2.493  10.889  1.00  0.00     0.081 C 
ATOM     18  C   UNL     1       0.610   2.663  10.125  1.00  0.00     0.019 C 
ATOM     19  C   UNL     1       1.427   1.336  10.073  1.00  0.00    -0.008 C 
ATOM     20  C   UNL     1       1.717   0.951  11.542  1.00  0.00     0.016 C 
ENDROOT
BRANCH  10  21
ATOM     21  O   UNL     1       7.611   0.379   8.034  1.00  0.00    -0.393 OA
ATOM     22  H   UNL     1       7.940  -0.128   7.271  1.00  0.00     0.210 HD
ENDBRANCH  10  21
TORSDOF 1
ENDMDL
MODEL 5
REMARK VINA RESULT:    -5.521     14.735     16.637
REMARK INTER + INTRA:          -5.682
REMARK INTER:                  -5.682
REMARK INTRA:                   0.000
REMARK UNBOUND:                 0.000
REMARK SMILES C[C@]12CC[C@H]3[C@@H](CCC4=CC(=O)CC[C@@]43C)[C@@H]1CC[C@H]2O
REMARK SMILES IDX 1 1 2 2 3 3 4 4 5 5 6 6 17 7 18 8 19 9 20 10 7 11 8 12 9 13
REMARK SMILES IDX 10 14 11 15 12 16 13 17 14 18 15 19 16 20 21 21
REMARK H PARENT 21 22
ROOT
ATOM      1  C   UNL     1       6.742   6.505  -6.436  1.00  0.00     0.014 C 
ATOM      2  C   UNL     1       6.738   5.250  -5.523  1.00  0.00    -0.003 C 
ATOM      3  C   UNL     1       5.300   4.733  -5.338  1.00  0.00     0.010 C 
ATOM      4  C   UNL     1       4.374   5.803  -4.680  1.00  0.00     0.005 C 
ATOM      5  C   UNL     1       4.955   6.544  -3.421  1.00  0.00     0.002 C 
ATOM      6  C   UNL     1       6.506   6.607  -3.433  1.00  0.00    -0.003 C 
ATOM      7  C   UNL     1       7.252   5.473  -4.093  1.00  0.00     0.001 C 
ATOM      8  C   UNL     1       8.747   5.724  -4.289  1.00  0.00     0.007 C 
ATOM      9  C   UNL     1       9.142   4.747  -5.397  1.00  0.00     0.032 C 
ATOM     10  C   UNL     1       7.827   4.310  -6.092  1.00  0.00     0.120 C 
ATOM     11  C   UNL     1       6.944   6.843  -1.997  1.00  0.00     0.008 C 
ATOM     12  C   UNL     1       6.803   8.336  -1.802  1.00  0.00     0.032 C 
ATOM     13  C   UNL     1       5.401   8.826  -2.111  1.00  0.00    -0.060 C 
ATOM     14  C   UNL     1       5.020   9.888  -1.381  1.00  0.00     0.047 C 
ATOM     15  C   UNL     1       3.615  10.331  -1.359  1.00  0.00     0.155 C 
ATOM     16  O   UNL     1       3.319  11.356  -0.757  1.00  0.00    -0.295 OA
ATOM     17  C   UNL     1       2.582   9.516  -2.077  1.00  0.00     0.081 C 
ATOM     18  C   UNL     1       3.056   8.074  -2.366  1.00  0.00     0.019 C 
ATOM     19  C   UNL     1       4.438   8.047  -3.089  1.00  0.00    -0.008 C 
ATOM     20  C   UNL     1       4.241   8.805  -4.422  1.00  0.00     0.016 C 
ENDROOT
BRANCH  10  21
ATOM     21  O   UNL     1       7.559   2.941  -5.827  1.00  0.00    -0.393 OA
ATOM     22  H   UNL     1       7.740   2.776  -4.885  1.00  0.00     0.210 HD
ENDBRANCH  10  21
TORSDOF 1
ENDMDL
MODEL 6
REMARK VINA RESULT:    -5.484      2.791      6.400
REMARK INTER + INTRA:          -5.644
REMARK INTER:                  -5.644
REMARK INTRA:                   0.000
REMARK UNBOUND:                 0.000
REMARK SMILES C[C@]12CC[C@H]3[C@@H](CCC4=CC(=O)CC[C@@]43C)[C@@H]1CC[C@H]2O
REMARK SMILES IDX 1 1 2 2 3 3 4 4 5 5 6 6 17 7 18 8 19 9 20 10 7 11 8 12 9 13
REMARK SMILES IDX 10 14 11 15 12 16 13 17 14 18 15 19 16 20 21 21
REMARK H PARENT 21 22
ROOT
ATOM      1  C   UNL     1       6.888  -1.757  11.188  1.00  0.00     0.014 C 
ATOM      2  C   UNL     1       6.274  -2.927  10.374  1.00  0.00    -0.003 C 
ATOM      3  C   UNL     1       6.301  -2.598   8.870  1.00  0.00     0.010 C 
ATOM      4  C   UNL     1       5.486  -1.310   8.539  1.00  0.00     0.005 C 
ATOM      5  C   UNL     1       4.060  -1.203   9.193  1.00  0.00     0.002 C 
ATOM      6  C   UNL     1       3.957  -1.993  10.525  1.00  0.00    -0.003 C 
ATOM      7  C   UNL     1       4.800  -3.237  10.672  1.00  0.00     0.001 C 
ATOM      8  C   UNL     1       4.840  -3.814  12.087  1.00  0.00     0.007 C 
ATOM      9  C   UNL     1       6.107  -4.670  12.101  1.00  0.00     0.032 C 
ATOM     10  C   UNL     1       6.964  -4.210  10.893  1.00  0.00     0.120 C 
ATOM     11  C   UNL     1       2.480  -2.253  10.766  1.00  0.00     0.008 C 
ATOM     12  C   UNL     1       1.971  -0.973  11.392  1.00  0.00     0.032 C 
ATOM     13  C   UNL     1       2.256   0.241  10.527  1.00  0.00    -0.060 C 
ATOM     14  C   UNL     1       1.336   1.216  10.636  1.00  0.00     0.047 C 
ATOM     15  C   UNL     1       1.309   2.343   9.688  1.00  0.00     0.155 C 
ATOM     16  O   UNL     1       0.517   3.260   9.870  1.00  0.00    -0.295 OA
ATOM     17  C   UNL     1       2.253   2.341   8.524  1.00  0.00     0.081 C 
ATOM     18  C   UNL     1       2.820   0.936   8.219  1.00  0.00     0.019 C 
ATOM     19  C   UNL     1       3.440   0.269   9.485  1.00  0.00    -0.008 C 
ATOM     20  C   UNL     1       4.584   1.201   9.946  1.00  0.00     0.016 C 
ENDROOT
BRANCH  10  21
ATOM     21  O   UNL     1       7.024  -5.235   9.911  1.00  0.00    -0.393 OA
ATOM     22  H   UNL     1       6.200  -5.750   9.964  1.00  0.00     0.210 HD
ENDBRANCH  10  21
TORSDOF 1
ENDMDL
MODEL 7
REMARK VINA RESULT:    -5.419      1.238      2.635
REMARK INTER + INTRA:          -5.577
REMARK INTER:                  -5.577
REMARK INTRA:                   0.000
REMARK UNBOUND:                 0.000
REMARK SMILES C[C@]12CC[C@H]3[C@@H](CCC4=CC(=O)CC[C@@]43C)[C@@H]1CC[C@H]2O
REMARK SMILES IDX 1 1 2 2 3 3 4 4 5 5 6 6 17 7 18 8 19 9 20 10 7 11 8 12 9 13
REMARK SMILES IDX 10 14 11 15 12 16 13 17 14 18 15 19 16 20 21 21
REMARK H PARENT 21 22
ROOT
ATOM      1  C   UNL     1      -0.839  -0.599  11.507  1.00  0.00     0.014 C 
ATOM      2  C   UNL     1      -1.356   0.166  10.259  1.00  0.00    -0.003 C 
ATOM      3  C   UNL     1      -1.049  -0.635   8.982  1.00  0.00     0.010 C 
ATOM      4  C   UNL     1       0.482  -0.873   8.794  1.00  0.00     0.005 C 
ATOM      5  C   UNL     1       1.410   0.379   9.003  1.00  0.00     0.002 C 
ATOM      6  C   UNL     1       0.791   1.420   9.974  1.00  0.00    -0.003 C 
ATOM      7  C   UNL     1      -0.713   1.539  10.015  1.00  0.00     0.001 C 
ATOM      8  C   UNL     1      -1.254   2.391  11.162  1.00  0.00     0.007 C 
ATOM      9  C   UNL     1      -2.705   1.933  11.311  1.00  0.00     0.032 C 
ATOM     10  C   UNL     1      -2.814   0.568  10.584  1.00  0.00     0.120 C 
ATOM     11  C   UNL     1       1.478   2.745   9.690  1.00  0.00     0.008 C 
ATOM     12  C   UNL     1       2.774   2.670  10.466  1.00  0.00     0.032 C 
ATOM     13  C   UNL     1       3.597   1.451  10.092  1.00  0.00    -0.060 C 
ATOM     14  C   UNL     1       4.925   1.639  10.190  1.00  0.00     0.047 C 
ATOM     15  C   UNL     1       5.873   0.663   9.624  1.00  0.00     0.155 C 
ATOM     16  O   UNL     1       7.074   0.817   9.811  1.00  0.00    -0.295 OA
ATOM     17  C   UNL     1       5.343  -0.496   8.835  1.00  0.00     0.081 C 
ATOM     18  C   UNL     1       3.899  -0.267   8.337  1.00  0.00     0.019 C 
ATOM     19  C   UNL     1       2.940   0.148   9.494  1.00  0.00    -0.008 C 
ATOM     20  C   UNL     1       2.959  -1.019  10.508  1.00  0.00     0.016 C 
ENDROOT
BRANCH  10  21
ATOM     21  O   UNL     1      -3.619   0.690   9.421  1.00  0.00    -0.393 OA
ATOM     22  H   UNL     1      -3.346   0.000   8.792  1.00  0.00     0.210 HD
ENDBRANCH  10  21
TORSDOF 1
ENDMDL
MODEL 8
REMARK VINA RESULT:    -5.379      6.159      7.686
REMARK INTER + INTRA:          -5.536
REMARK INTER:                  -5.536
REMARK INTRA:                   0.000
REMARK UNBOUND:                 0.000
REMARK SMILES C[C@]12CC[C@H]3[C@@H](CCC4=CC(=O)CC[C@@]43C)[C@@H]1CC[C@H]2O
REMARK SMILES IDX 1 1 2 2 3 3 4 4 5 5 6 6 17 7 18 8 19 9 20 10 7 11 8 12 9 13
REMARK SMILES IDX 10 14 11 15 12 16 13 17 14 18 15 19 16 20 21 21
REMARK H PARENT 21 22
ROOT
ATOM      1  C   UNL     1      -1.986   2.620   5.385  1.00  0.00     0.014 C 
ATOM      2  C   UNL     1      -1.033   3.823   5.613  1.00  0.00    -0.003 C 
ATOM      3  C   UNL     1      -1.149   4.820   4.445  1.00  0.00     0.010 C 
ATOM      4  C   UNL     1      -0.773   4.166   3.079  1.00  0.00     0.005 C 
ATOM      5  C   UNL     1       0.544   3.307   3.059  1.00  0.00     0.002 C 
ATOM      6  C   UNL     1       0.877   2.701   4.449  1.00  0.00    -0.003 C 
ATOM      7  C   UNL     1       0.462   3.478   5.674  1.00  0.00     0.001 C 
ATOM      8  C   UNL     1       0.593   2.710   6.989  1.00  0.00     0.007 C 
ATOM      9  C   UNL     1      -0.345   3.450   7.944  1.00  0.00     0.032 C 
ATOM     10  C   UNL     1      -1.293   4.301   7.060  1.00  0.00     0.120 C 
ATOM     11  C   UNL     1       2.360   2.370   4.436  1.00  0.00     0.008 C 
ATOM     12  C   UNL     1       2.440   1.030   3.741  1.00  0.00     0.032 C 
ATOM     13  C   UNL     1       1.799   1.057   2.367  1.00  0.00    -0.060 C 
ATOM     14  C   UNL     1       2.369   0.220   1.482  1.00  0.00     0.047 C 
ATOM     15  C   UNL     1       2.051   0.302   0.046  1.00  0.00     0.155 C 
ATOM     16  O   UNL     1       2.517  -0.533  -0.720  1.00  0.00    -0.295 OA
ATOM     17  C   UNL     1       1.163   1.406  -0.444  1.00  0.00     0.081 C 
ATOM     18  C   UNL     1       1.064   2.579   0.558  1.00  0.00     0.019 C 
ATOM     19  C   UNL     1       0.672   2.094   1.988  1.00  0.00    -0.008 C 
ATOM     20  C   UNL     1      -0.708   1.414   1.848  1.00  0.00     0.016 C 
ENDROOT
BRANCH  10  21
ATOM     21  O   UNL     1      -1.024   5.684   7.237  1.00  0.00    -0.393 OA
ATOM     22  H   UNL     1      -0.389   5.776   7.969  1.00  0.00     0.210 HD
ENDBRANCH  10  21
TORSDOF 1
ENDMDL
MODEL 9
REMARK VINA RESULT:    -5.328      2.036      6.681
REMARK INTER + INTRA:          -5.483
REMARK INTER:                  -5.483
REMARK INTRA:                   0.000
REMARK UNBOUND:                 0.000
REMARK SMILES C[C@]12CC[C@H]3[C@@H](CCC4=CC(=O)CC[C@@]43C)[C@@H]1CC[C@H]2O
REMARK SMILES IDX 1 1 2 2 3 3 4 4 5 5 6 6 17 7 18 8 19 9 20 10 7 11 8 12 9 13
REMARK SMILES IDX 10 14 11 15 12 16 13 17 14 18 15 19 16 20 21 21
REMARK H PARENT 21 22
ROOT
ATOM      1  C   UNL     1       1.398  -0.564   9.639  1.00  0.00     0.014 C 
ATOM      2  C   UNL     1       2.210   0.745   9.452  1.00  0.00    -0.003 C 
ATOM      3  C   UNL     1       2.389   1.456  10.805  1.00  0.00     0.010 C 
ATOM      4  C   UNL     1       1.020   1.833  11.453  1.00  0.00     0.005 C 
ATOM      5  C   UNL     1      -0.032   2.516  10.506  1.00  0.00     0.002 C 
ATOM      6  C   UNL     1       0.158   2.112   9.019  1.00  0.00    -0.003 C 
ATOM      7  C   UNL     1       1.558   1.802   8.547  1.00  0.00     0.001 C 
ATOM      8  C   UNL     1       1.636   1.172   7.157  1.00  0.00     0.007 C 
ATOM      9  C   UNL     1       3.002   0.486   7.138  1.00  0.00     0.032 C 
ATOM     10  C   UNL     1       3.452   0.357   8.617  1.00  0.00     0.120 C 
ATOM     11  C   UNL     1      -0.518   3.187   8.185  1.00  0.00     0.008 C 
ATOM     12  C   UNL     1      -1.980   2.799   8.188  1.00  0.00     0.032 C 
ATOM     13  C   UNL     1      -2.535   2.663   9.593  1.00  0.00    -0.060 C 
ATOM     14  C   UNL     1      -3.838   2.978   9.698  1.00  0.00     0.047 C 
ATOM     15  C   UNL     1      -4.472   3.155  11.016  1.00  0.00     0.155 C 
ATOM     16  O   UNL     1      -5.680   3.351  11.079  1.00  0.00    -0.295 OA
ATOM     17  C   UNL     1      -3.624   3.089  12.250  1.00  0.00     0.081 C 
ATOM     18  C   UNL     1      -2.121   3.293  11.951  1.00  0.00     0.019 C 
ATOM     19  C   UNL     1      -1.612   2.336  10.830  1.00  0.00    -0.008 C 
ATOM     20  C   UNL     1      -1.845   0.900  11.353  1.00  0.00     0.016 C 
ENDROOT
BRANCH  10  21
ATOM     21  O   UNL     1       4.566   1.200   8.869  1.00  0.00    -0.393 OA
ATOM     22  H   UNL     1       4.345   2.093   8.555  1.00  0.00     0.210 HD
ENDBRANCH  10  21
TORSDOF 1
ENDMDL
