MODEL 1
REMARK VINA RESULT:    -6.380      0.000      0.000
REMARK INTER + INTRA:          -7.387
REMARK INTER:                  -7.312
REMARK INTRA:                  -0.075
REMARK UNBOUND:                -0.075
REMARK SMILES NCCc1c[nH]c2ccccc12
REMARK SMILES IDX 2 1 1 2 3 5 4 6 5 7 12 8 6 9 7 10 11 11 8 12 10 13 9 14
REMARK H PARENT 1 3 1 4 6 15
ROOT
ATOM      1  C   UNL     1      21.037  -8.800 -11.557  1.00  0.00     0.082 C 
ENDROOT
BRANCH   1   2
ATOM      2  N   UNL     1      20.305  -9.712 -12.440  1.00  0.00    -0.330 NA
ATOM      3  H   UNL     1      19.373  -9.334 -12.613  1.00  0.00     0.118 HD
ATOM      4  H   UNL     1      20.165 -10.606 -11.969  1.00  0.00     0.118 HD
ENDBRANCH   1   2
BRANCH   1   5
ATOM      5  C   UNL     1      20.582  -8.946 -10.098  1.00  0.00     0.053 C 
BRANCH   5   6
ATOM      6  C   UNL     1      21.728  -9.148  -9.151  1.00  0.00    -0.021 A 
ATOM      7  C   UNL     1      22.630  -8.180  -8.753  1.00  0.00     0.087 A 
ATOM      8  C   UNL     1      22.116 -10.365  -8.499  1.00  0.00     0.003 A 
ATOM      9  N   UNL     1      23.527  -8.751  -7.891  1.00  0.00    -0.361 N 
ATOM     10  C   UNL     1      23.230 -10.080  -7.708  1.00  0.00     0.046 A 
ATOM     11  C   UNL     1      21.623 -11.687  -8.507  1.00  0.00     0.010 A 
ATOM     12  C   UNL     1      23.865 -11.042  -6.911  1.00  0.00     0.026 A 
ATOM     13  C   UNL     1      22.246 -12.662  -7.716  1.00  0.00     0.001 A 
ATOM     14  C   UNL     1      23.347 -12.341  -6.926  1.00  0.00     0.002 A 
ATOM     15  H   UNL     1      24.298  -8.272  -7.450  1.00  0.00     0.166 HD
ENDBRANCH   5   6
ENDBRANCH   1   5
TORSDOF 3
ENDMDL
MODEL 2
REMARK VINA RESULT:    -6.044      2.181      3.416
REMARK INTER + INTRA:          -7.003
REMARK INTER:                  -6.937
REMARK INTRA:                  -0.066
REMARK UNBOUND:                -0.075
REMARK SMILES NCCc1c[nH]c2ccccc12
REMARK SMILES IDX 2 1 1 2 3 5 4 6 5 7 12 8 6 9 7 10 11 11 8 12 10 13 9 14
REMARK H PARENT 1 3 1 4 6 15
ROOT
ATOM      1  C   UNL     1      22.884  -5.985 -11.382  1.00  0.00     0.082 C 
ENDROOT
BRANCH   1   2
ATOM      2  N   UNL     1      23.607  -4.853 -10.796  1.00  0.00    -0.330 NA
ATOM      3  H   UNL     1      22.972  -4.326 -10.197  1.00  0.00     0.118 HD
ATOM      4  H   UNL     1      23.898  -4.213 -11.534  1.00  0.00     0.118 HD
ENDBRANCH   1   2
BRANCH   1   5
ATOM      5  C   UNL     1      22.056  -6.730 -10.326  1.00  0.00     0.053 C 
BRANCH   5   6
ATOM      6  C   UNL     1      21.823  -8.169 -10.681  1.00  0.00    -0.021 A 
ATOM      7  C   UNL     1      21.051  -8.628 -11.731  1.00  0.00     0.087 A 
ATOM      8  C   UNL     1      22.332  -9.327 -10.006  1.00  0.00     0.003 A 
ATOM      9  N   UNL     1      21.082  -9.997 -11.725  1.00  0.00    -0.361 N 
ATOM     10  C   UNL     1      21.865 -10.449 -10.691  1.00  0.00     0.046 A 
ATOM     11  C   UNL     1      23.149  -9.528  -8.873  1.00  0.00     0.010 A 
ATOM     12  C   UNL     1      22.186 -11.761 -10.314  1.00  0.00     0.026 A 
ATOM     13  C   UNL     1      23.480 -10.832  -8.482  1.00  0.00     0.001 A 
ATOM     14  C   UNL     1      23.010 -11.930  -9.196  1.00  0.00     0.002 A 
ATOM     15  H   UNL     1      20.600 -10.593 -12.381  1.00  0.00     0.166 HD
ENDBRANCH   5   6
ENDBRANCH   1   5
TORSDOF 3
ENDMDL
MODEL 3
REMARK VINA RESULT:    -5.902      1.863      4.271
REMARK INTER + INTRA:          -6.840
REMARK INTER:                  -6.701
REMARK INTRA:                  -0.139
REMARK UNBOUND:                -0.075
REMARK SMILES NCCc1c[nH]c2ccccc12
REMARK SMILES IDX 2 1 1 2 3 5 4 6 5 7 12 8 6 9 7 10 11 11 8 12 10 13 9 14
REMARK H PARENT 1 3 1 4 6 15
ROOT
ATOM      1  C   UNL     1      22.687 -12.434  -9.490  1.00  0.00     0.082 C 
ENDROOT
BRANCH   1   2
ATOM      2  N   UNL     1      22.746 -12.675 -10.935  1.00  0.00    -0.330 NA
ATOM      3  H   UNL     1      21.853 -13.056 -11.246  1.00  0.00     0.118 HD
ATOM      4  H   UNL     1      23.445 -13.390 -11.134  1.00  0.00     0.118 HD
ENDBRANCH   1   2
BRANCH   1   5
ATOM      5  C   UNL     1      21.535 -11.488  -9.125  1.00  0.00     0.053 C 
BRANCH   5   6
ATOM      6  C   UNL     1      21.926 -10.042  -9.202  1.00  0.00    -0.021 A 
ATOM      7  C   UNL     1      22.581  -9.327  -8.218  1.00  0.00     0.087 A 
ATOM      8  C   UNL     1      21.689  -9.131 -10.285  1.00  0.00     0.003 A 
ATOM      9  N   UNL     1      22.757  -8.043  -8.659  1.00  0.00    -0.361 N 
ATOM     10  C   UNL     1      22.233  -7.899  -9.921  1.00  0.00     0.046 A 
ATOM     11  C   UNL     1      21.060  -9.239 -11.543  1.00  0.00     0.010 A 
ATOM     12  C   UNL     1      22.197  -6.774 -10.756  1.00  0.00     0.026 A 
ATOM     13  C   UNL     1      21.016  -8.124 -12.392  1.00  0.00     0.001 A 
ATOM     14  C   UNL     1      21.582  -6.913 -12.004  1.00  0.00     0.002 A 
ATOM     15  H   UNL     1      23.203  -7.304  -8.137  1.00  0.00     0.166 HD
ENDBRANCH   5   6
ENDBRANCH   1   5
TORSDOF 3
ENDMDL
MODEL 4
REMARK VINA RESULT:    -5.902      1.543      5.119
REMARK INTER + INTRA:          -6.839
REMARK INTER:                  -6.760
REMARK INTRA:                  -0.080
REMARK UNBOUND:                -0.075
REMARK SMILES NCCc1c[nH]c2ccccc12
REMARK SMILES IDX 2 1 1 2 3 5 4 6 5 7 12 8 6 9 7 10 11 11 8 12 10 13 9 14
REMARK H PARENT 1 3 1 4 6 15
ROOT
ATOM      1  C   UNL     1      22.974 -10.757  -6.990  1.00  0.00     0.082 C 
ENDROOT
BRANCH   1   2
ATOM      2  N   UNL     1      24.375 -10.650  -6.574  1.00  0.00    -0.330 NA
ATOM      3  H   UNL     1      24.910 -11.403  -7.008  1.00  0.00     0.118 HD
ATOM      4  H   UNL     1      24.446 -10.796  -5.568  1.00  0.00     0.118 HD
ENDBRANCH   1   2
BRANCH   1   5
ATOM      5  C   UNL     1      22.500  -9.481  -7.700  1.00  0.00     0.053 C 
BRANCH   5   6
ATOM      6  C   UNL     1      22.055  -9.734  -9.110  1.00  0.00    -0.021 A 
ATOM      7  C   UNL     1      21.727 -10.964  -9.647  1.00  0.00     0.087 A 
ATOM      8  C   UNL     1      21.901  -8.771 -10.162  1.00  0.00     0.003 A 
ATOM      9  N   UNL     1      21.375 -10.785 -10.957  1.00  0.00    -0.361 N 
ATOM     10  C   UNL     1      21.461  -9.456 -11.295  1.00  0.00     0.046 A 
ATOM     11  C   UNL     1      22.096  -7.377 -10.257  1.00  0.00     0.010 A 
ATOM     12  C   UNL     1      21.187  -8.818 -12.513  1.00  0.00     0.026 A 
ATOM     13  C   UNL     1      21.827  -6.723 -11.467  1.00  0.00     0.001 A 
ATOM     14  C   UNL     1      21.374  -7.433 -12.575  1.00  0.00     0.002 A 
ATOM     15  H   UNL     1      21.094 -11.519 -11.591  1.00  0.00     0.166 HD
ENDBRANCH   5   6
ENDBRANCH   1   5
TORSDOF 3
ENDMDL
MODEL 5
REMARK VINA RESULT:    -5.864      3.783      5.252
REMARK INTER + INTRA:          -6.796
REMARK INTER:                  -6.682
REMARK INTRA:                  -0.114
REMARK UNBOUND:                -0.075
REMARK SMILES NCCc1c[nH]c2ccccc12
REMARK SMILES IDX 2 1 1 2 3 5 4 6 5 7 12 8 6 9 7 10 11 11 8 12 10 13 9 14
REMARK H PARENT 1 3 1 4 6 15
ROOT
ATOM      1  C   UNL     1      23.194  -4.028 -14.102  1.00  0.00     0.082 C 
ENDROOT
BRANCH   1   2
ATOM      2  N   UNL     1      21.741  -3.994 -13.909  1.00  0.00    -0.330 NA
ATOM      3  H   UNL     1      21.527  -3.407 -13.102  1.00  0.00     0.118 HD
ATOM      4  H   UNL     1      21.404  -4.928 -13.678  1.00  0.00     0.118 HD
ENDBRANCH   1   2
BRANCH   1   5
ATOM      5  C   UNL     1      23.794  -5.354 -13.613  1.00  0.00     0.053 C 
BRANCH   5   6
ATOM      6  C   UNL     1      23.302  -5.744 -12.251  1.00  0.00    -0.021 A 
ATOM      7  C   UNL     1      23.635  -5.125 -11.061  1.00  0.00     0.087 A 
ATOM      8  C   UNL     1      22.419  -6.825 -11.920  1.00  0.00     0.003 A 
ATOM      9  N   UNL     1      22.990  -5.771 -10.041  1.00  0.00    -0.361 N 
ATOM     10  C   UNL     1      22.233  -6.804 -10.537  1.00  0.00     0.046 A 
ATOM     11  C   UNL     1      21.760  -7.824 -12.668  1.00  0.00     0.010 A 
ATOM     12  C   UNL     1      21.407  -7.717  -9.866  1.00  0.00     0.026 A 
ATOM     13  C   UNL     1      20.930  -8.744 -12.013  1.00  0.00     0.001 A 
ATOM     14  C   UNL     1      20.753  -8.686 -10.633  1.00  0.00     0.002 A 
ATOM     15  H   UNL     1      23.058  -5.530  -9.064  1.00  0.00     0.166 HD
ENDBRANCH   5   6
ENDBRANCH   1   5
TORSDOF 3
ENDMDL
MODEL 6
REMARK VINA RESULT:    -5.549      2.670      5.696
REMARK INTER + INTRA:          -6.435
REMARK INTER:                  -6.366
REMARK INTRA:                  -0.069
REMARK UNBOUND:                -0.075
REMARK SMILES NCCc1c[nH]c2ccccc12
REMARK SMILES IDX 2 1 1 2 3 5 4 6 5 7 12 8 6 9 7 10 11 11 8 12 10 13 9 14
REMARK H PARENT 1 3 1 4 6 15
ROOT
ATOM      1  C   UNL     1      22.120  -8.828  -8.517  1.00  0.00     0.082 C 
ENDROOT
BRANCH   1   2
ATOM      2  N   UNL     1      23.146  -9.720  -9.063  1.00  0.00    -0.330 NA
ATOM      3  H   UNL     1      24.062  -9.418  -8.729  1.00  0.00     0.118 HD
ATOM      4  H   UNL     1      23.171  -9.632 -10.078  1.00  0.00     0.118 HD
ENDBRANCH   1   2
BRANCH   1   5
ATOM      5  C   UNL     1      20.998  -8.573  -9.533  1.00  0.00     0.053 C 
BRANCH   5   6
ATOM      6  C   UNL     1      21.519  -8.148 -10.875  1.00  0.00    -0.021 A 
ATOM      7  C   UNL     1      21.317  -8.814 -12.069  1.00  0.00     0.087 A 
ATOM      8  C   UNL     1      22.324  -7.000 -11.174  1.00  0.00     0.003 A 
ATOM      9  N   UNL     1      21.949  -8.119 -13.065  1.00  0.00    -0.361 N 
ATOM     10  C   UNL     1      22.561  -7.002 -12.549  1.00  0.00     0.046 A 
ATOM     11  C   UNL     1      22.875  -5.955 -10.402  1.00  0.00     0.010 A 
ATOM     12  C   UNL     1      23.305  -6.005 -13.196  1.00  0.00     0.026 A 
ATOM     13  C   UNL     1      23.622  -4.950 -11.032  1.00  0.00     0.001 A 
ATOM     14  C   UNL     1      23.827  -4.974 -12.409  1.00  0.00     0.002 A 
ATOM     15  H   UNL     1      21.969  -8.384 -14.038  1.00  0.00     0.166 HD
ENDBRANCH   5   6
ENDBRANCH   1   5
TORSDOF 3
ENDMDL
MODEL 7
REMARK VINA RESULT:    -5.266      5.441      8.182
REMARK INTER + INTRA:          -6.110
REMARK INTER:                  -6.028
REMARK INTRA:                  -0.083
REMARK UNBOUND:                -0.075
REMARK SMILES NCCc1c[nH]c2ccccc12
REMARK SMILES IDX 2 1 1 2 3 5 4 6 5 7 12 8 6 9 7 10 11 11 8 12 10 13 9 14
REMARK H PARENT 1 3 1 4 6 15
ROOT
ATOM      1  C   UNL     1      22.187  -7.869 -12.317  1.00  0.00     0.082 C 
ENDROOT
BRANCH   1   2
ATOM      2  N   UNL     1      22.418  -8.396 -10.969  1.00  0.00    -0.330 NA
ATOM      3  H   UNL     1      21.668  -8.078 -10.354  1.00  0.00     0.118 HD
ATOM      4  H   UNL     1      23.280  -8.003 -10.591  1.00  0.00     0.118 HD
ENDBRANCH   1   2
BRANCH   1   5
ATOM      5  C   UNL     1      21.426  -6.537 -12.277  1.00  0.00     0.053 C 
BRANCH   5   6
ATOM      6  C   UNL     1      22.310  -5.357 -12.555  1.00  0.00    -0.021 A 
ATOM      7  C   UNL     1      23.622  -5.215 -12.147  1.00  0.00     0.087 A 
ATOM      8  C   UNL     1      21.968  -4.161 -13.270  1.00  0.00     0.003 A 
ATOM      9  N   UNL     1      24.085  -4.005 -12.590  1.00  0.00    -0.361 N 
ATOM     10  C   UNL     1      23.101  -3.347 -13.288  1.00  0.00     0.046 A 
ATOM     11  C   UNL     1      20.799  -3.694 -13.906  1.00  0.00     0.010 A 
ATOM     12  C   UNL     1      23.131  -2.097 -13.923  1.00  0.00     0.026 A 
ATOM     13  C   UNL     1      20.811  -2.448 -14.547  1.00  0.00     0.001 A 
ATOM     14  C   UNL     1      21.963  -1.665 -14.559  1.00  0.00     0.002 A 
ATOM     15  H   UNL     1      25.012  -3.641 -12.429  1.00  0.00     0.166 HD
ENDBRANCH   5   6
ENDBRANCH   1   5
TORSDOF 3
ENDMDL
MODEL 8
REMARK VINA RESULT:    -5.211      1.923      4.674
REMARK INTER + INTRA:          -6.048
REMARK INTER:                  -5.974
REMARK INTRA:                  -0.074
REMARK UNBOUND:                -0.075
REMARK SMILES NCCc1c[nH]c2ccccc12
REMARK SMILES IDX 2 1 1 2 3 5 4 6 5 7 12 8 6 9 7 10 11 11 8 12 10 13 9 14
REMARK H PARENT 1 3 1 4 6 15
ROOT
ATOM      1  C   UNL     1      23.600 -10.534  -6.813  1.00  0.00     0.082 C 
ENDROOT
BRANCH   1   2
ATOM      2  N   UNL     1      23.023 -11.437  -5.814  1.00  0.00    -0.330 NA
ATOM      3  H   UNL     1      22.758 -12.312  -6.268  1.00  0.00     0.118 HD
ATOM      4  H   UNL     1      22.161 -11.036  -5.447  1.00  0.00     0.118 HD
ENDBRANCH   1   2
BRANCH   1   5
ATOM      5  C   UNL     1      22.904 -10.682  -8.173  1.00  0.00     0.053 C 
BRANCH   5   6
ATOM      6  C   UNL     1      22.703  -9.368  -8.867  1.00  0.00    -0.021 A 
ATOM      7  C   UNL     1      23.078  -8.130  -8.381  1.00  0.00     0.087 A 
ATOM      8  C   UNL     1      22.080  -9.139 -10.139  1.00  0.00     0.003 A 
ATOM      9  N   UNL     1      22.723  -7.178  -9.298  1.00  0.00    -0.361 N 
ATOM     10  C   UNL     1      22.123  -7.767 -10.385  1.00  0.00     0.046 A 
ATOM     11  C   UNL     1      21.481  -9.974 -11.106  1.00  0.00     0.010 A 
ATOM     12  C   UNL     1      21.616  -7.187 -11.557  1.00  0.00     0.026 A 
ATOM     13  C   UNL     1      20.969  -9.411 -12.283  1.00  0.00     0.001 A 
ATOM     14  C   UNL     1      21.042  -8.038 -12.505  1.00  0.00     0.002 A 
ATOM     15  H   UNL     1      22.875  -6.185  -9.197  1.00  0.00     0.166 HD
ENDBRANCH   5   6
ENDBRANCH   1   5
TORSDOF 3
ENDMDL
MODEL 9
REMARK VINA RESULT:    -5.169      3.896      6.303
REMARK INTER + INTRA:          -5.999
REMARK INTER:                  -5.932
REMARK INTRA:                  -0.067
REMARK UNBOUND:                -0.075
REMARK SMILES NCCc1c[nH]c2ccccc12
REMARK SMILES IDX 2 1 1 2 3 5 4 6 5 7 12 8 6 9 7 10 11 11 8 12 10 13 9 14
REMARK H PARENT 1 3 1 4 6 15
ROOT
ATOM      1  C   UNL     1      22.219  -9.894 -11.566  1.00  0.00     0.082 C 
ENDROOT
BRANCH   1   2
ATOM      2  N   UNL     1      23.153 -10.815 -12.219  1.00  0.00    -0.330 NA
ATOM      3  H   UNL     1      23.881 -10.275 -12.687  1.00  0.00     0.118 HD
ATOM      4  H   UNL     1      22.668 -11.332 -12.952  1.00  0.00     0.118 HD
ENDBRANCH   1   2
BRANCH   1   5
ATOM      5  C   UNL     1      21.787  -8.766 -12.514  1.00  0.00     0.053 C 
BRANCH   5   6
ATOM      6  C   UNL     1      22.148  -7.405 -11.996  1.00  0.00    -0.021 A 
ATOM      7  C   UNL     1      21.735  -6.860 -10.795  1.00  0.00     0.087 A 
ATOM      8  C   UNL     1      22.962  -6.415 -12.640  1.00  0.00     0.003 A 
ATOM      9  N   UNL     1      22.268  -5.604 -10.683  1.00  0.00    -0.361 N 
ATOM     10  C   UNL     1      23.030  -5.312 -11.789  1.00  0.00     0.046 A 
ATOM     11  C   UNL     1      23.650  -6.353 -13.871  1.00  0.00     0.010 A 
ATOM     12  C   UNL     1      23.764  -4.157 -12.095  1.00  0.00     0.026 A 
ATOM     13  C   UNL     1      24.389  -5.207 -14.193  1.00  0.00     0.001 A 
ATOM     14  C   UNL     1      24.449  -4.129 -13.314  1.00  0.00     0.002 A 
ATOM     15  H   UNL     1      22.125  -4.977  -9.906  1.00  0.00     0.166 HD
ENDBRANCH   5   6
ENDBRANCH   1   5
TORSDOF 3
ENDMDL
