MODEL 1
REMARK VINA RESULT:    -6.870      0.000      0.000
REMARK INTER + INTRA:          -8.511
REMARK INTER:                  -8.276
REMARK INTRA:                  -0.235
REMARK UNBOUND:                -0.235
REMARK SMILES [H]/N=C(/N)NCCc1ccc(O)cc1
REMARK SMILES IDX 7 1 8 2 11 3 10 4 13 5 9 6 14 7 12 8 6 10 5 11 3 12 2 13
REMARK SMILES IDX 4 14 1 16
REMARK H PARENT 12 9 5 15 4 17 4 18
ROOT
ATOM      1  C   UNL     1      22.085  -9.506 -11.518  1.00  0.00     0.057 C 
ENDROOT
BRANCH   1   2
ATOM      2  C   UNL     1      22.505  -9.682 -10.067  1.00  0.00    -0.046 A 
ATOM      3  C   UNL     1      23.253  -9.961  -7.375  1.00  0.00     0.115 A 
ATOM      4  C   UNL     1      23.775 -10.828  -8.324  1.00  0.00     0.046 A 
ATOM      5  C   UNL     1      22.382  -8.948  -7.748  1.00  0.00     0.046 A 
ATOM      6  C   UNL     1      23.411 -10.679  -9.666  1.00  0.00     0.007 A 
ATOM      7  C   UNL     1      22.009  -8.805  -9.091  1.00  0.00     0.007 A 
BRANCH   3   8
ATOM      8  O   UNL     1      23.582 -10.073  -6.056  1.00  0.00    -0.508 OA
ATOM      9  H   UNL     1      22.768 -10.138  -5.537  1.00  0.00     0.293 HD
ENDBRANCH   3   8
ENDBRANCH   1   2
BRANCH   1  10
ATOM     10  C   UNL     1      20.847  -8.621 -11.694  1.00  0.00     0.120 C 
BRANCH  10  11
ATOM     11  N   UNL     1      21.069  -7.493 -12.590  1.00  0.00    -0.356 N 
ATOM     12  C   UNL     1      21.278  -6.243 -12.108  1.00  0.00     0.185 C 
ATOM     13  N   UNL     1      21.603  -5.908 -10.911  1.00  0.00    -0.270 NA
ATOM     14  N   UNL     1      21.108  -5.283 -13.030  1.00  0.00    -0.370 N 
ATOM     15  H   UNL     1      20.498  -7.505 -13.428  1.00  0.00     0.163 HD
ATOM     16  H   UNL     1      21.698  -6.740 -10.332  1.00  0.00     0.191 HD
ATOM     17  H   UNL     1      21.470  -5.507 -13.946  1.00  0.00     0.159 HD
ATOM     18  H   UNL     1      21.492  -4.411 -12.682  1.00  0.00     0.159 HD
ENDBRANCH  10  11
ENDBRANCH   1  10
TORSDOF 4
ENDMDL
MODEL 2
REMARK VINA RESULT:    -6.524      3.483      4.580
REMARK INTER + INTRA:          -8.094
REMARK INTER:                  -7.891
REMARK INTRA:                  -0.203
REMARK UNBOUND:                -0.235
REMARK SMILES [H]/N=C(/N)NCCc1ccc(O)cc1
REMARK SMILES IDX 7 1 8 2 11 3 10 4 13 5 9 6 14 7 12 8 6 10 5 11 3 12 2 13
REMARK SMILES IDX 4 14 1 16
REMARK H PARENT 12 9 5 15 4 17 4 18
ROOT
ATOM      1  C   UNL     1      23.187  -5.430 -10.930  1.00  0.00     0.057 C 
ENDROOT
BRANCH   1   2
ATOM      2  C   UNL     1      22.399  -6.683 -11.274  1.00  0.00    -0.046 A 
ATOM      3  C   UNL     1      20.957  -8.993 -11.963  1.00  0.00     0.115 A 
ATOM      4  C   UNL     1      20.829  -8.459 -10.688  1.00  0.00     0.046 A 
ATOM      5  C   UNL     1      21.775  -8.383 -12.903  1.00  0.00     0.046 A 
ATOM      6  C   UNL     1      21.537  -7.302 -10.352  1.00  0.00     0.007 A 
ATOM      7  C   UNL     1      22.494  -7.229 -12.563  1.00  0.00     0.007 A 
BRANCH   3   8
ATOM      8  O   UNL     1      20.284 -10.120 -12.331  1.00  0.00    -0.508 OA
ATOM      9  H   UNL     1      19.701 -10.385 -11.605  1.00  0.00     0.293 HD
ENDBRANCH   3   8
ENDBRANCH   1   2
BRANCH   1  10
ATOM     10  C   UNL     1      23.852  -4.772 -12.143  1.00  0.00     0.120 C 
BRANCH  10  11
ATOM     11  N   UNL     1      22.988  -3.814 -12.823  1.00  0.00    -0.356 N 
ATOM     12  C   UNL     1      23.004  -3.690 -14.173  1.00  0.00     0.185 C 
ATOM     13  N   UNL     1      23.488  -4.514 -15.032  1.00  0.00    -0.270 NA
ATOM     14  N   UNL     1      22.440  -2.552 -14.608  1.00  0.00    -0.370 N 
ATOM     15  H   UNL     1      22.887  -2.927 -12.343  1.00  0.00     0.163 HD
ATOM     16  H   UNL     1      23.875  -5.325 -14.554  1.00  0.00     0.191 HD
ATOM     17  H   UNL     1      21.602  -2.280 -14.114  1.00  0.00     0.159 HD
ATOM     18  H   UNL     1      22.278  -2.617 -15.607  1.00  0.00     0.159 HD
ENDBRANCH  10  11
ENDBRANCH   1  10
TORSDOF 4
ENDMDL
MODEL 3
REMARK VINA RESULT:    -6.479      3.753      5.438
REMARK INTER + INTRA:          -8.041
REMARK INTER:                  -7.802
REMARK INTRA:                  -0.238
REMARK UNBOUND:                -0.235
REMARK SMILES [H]/N=C(/N)NCCc1ccc(O)cc1
REMARK SMILES IDX 7 1 8 2 11 3 10 4 13 5 9 6 14 7 12 8 6 10 5 11 3 12 2 13
REMARK SMILES IDX 4 14 1 16
REMARK H PARENT 12 9 5 15 4 17 4 18
ROOT
ATOM      1  C   UNL     1      21.138  -7.952 -10.538  1.00  0.00     0.057 C 
ENDROOT
BRANCH   1   2
ATOM      2  C   UNL     1      22.113  -7.012 -11.230  1.00  0.00    -0.046 A 
ATOM      3  C   UNL     1      23.912  -5.309 -12.552  1.00  0.00     0.115 A 
ATOM      4  C   UNL     1      23.644  -5.110 -11.205  1.00  0.00     0.046 A 
ATOM      5  C   UNL     1      23.314  -6.353 -13.244  1.00  0.00     0.046 A 
ATOM      6  C   UNL     1      22.758  -5.967 -10.546  1.00  0.00     0.007 A 
ATOM      7  C   UNL     1      22.418  -7.206 -12.585  1.00  0.00     0.007 A 
BRANCH   3   8
ATOM      8  O   UNL     1      24.769  -4.495 -13.232  1.00  0.00    -0.508 OA
ATOM      9  H   UNL     1      24.591  -3.577 -12.982  1.00  0.00     0.293 HD
ENDBRANCH   3   8
ENDBRANCH   1   2
BRANCH   1  10
ATOM     10  C   UNL     1      21.699  -9.360 -10.316  1.00  0.00     0.120 C 
BRANCH  10  11
ATOM     11  N   UNL     1      22.917  -9.375  -9.516  1.00  0.00    -0.356 N 
ATOM     12  C   UNL     1      22.876  -9.218  -8.170  1.00  0.00     0.185 C 
ATOM     13  N   UNL     1      21.856  -9.334  -7.397  1.00  0.00    -0.270 NA
ATOM     14  N   UNL     1      24.065  -8.899  -7.636  1.00  0.00    -0.370 N 
ATOM     15  H   UNL     1      23.706  -8.906  -9.947  1.00  0.00     0.163 HD
ATOM     16  H   UNL     1      21.033  -9.581  -7.944  1.00  0.00     0.191 HD
ATOM     17  H   UNL     1      24.852  -9.390  -8.034  1.00  0.00     0.159 HD
ATOM     18  H   UNL     1      24.024  -9.017  -6.630  1.00  0.00     0.159 HD
ENDBRANCH  10  11
ENDBRANCH   1  10
TORSDOF 4
ENDMDL
MODEL 4
REMARK VINA RESULT:    -6.441      4.989      7.511
REMARK INTER + INTRA:          -7.994
REMARK INTER:                  -7.854
REMARK INTRA:                  -0.140
REMARK UNBOUND:                -0.235
REMARK SMILES [H]/N=C(/N)NCCc1ccc(O)cc1
REMARK SMILES IDX 7 1 8 2 11 3 10 4 13 5 9 6 14 7 12 8 6 10 5 11 3 12 2 13
REMARK SMILES IDX 4 14 1 16
REMARK H PARENT 12 9 5 15 4 17 4 18
ROOT
ATOM      1  C   UNL     1      22.951  -5.373 -12.589  1.00  0.00     0.057 C 
ENDROOT
BRANCH   1   2
ATOM      2  C   UNL     1      22.398  -4.140 -13.286  1.00  0.00    -0.046 A 
ATOM      3  C   UNL     1      21.420  -1.835 -14.556  1.00  0.00     0.115 A 
ATOM      4  C   UNL     1      20.616  -2.963 -14.470  1.00  0.00     0.046 A 
ATOM      5  C   UNL     1      22.692  -1.831 -14.003  1.00  0.00     0.046 A 
ATOM      6  C   UNL     1      21.101  -4.105 -13.826  1.00  0.00     0.007 A 
ATOM      7  C   UNL     1      23.181  -2.980 -13.366  1.00  0.00     0.007 A 
BRANCH   3   8
ATOM      8  O   UNL     1      20.986  -0.701 -15.177  1.00  0.00    -0.508 OA
ATOM      9  H   UNL     1      20.383  -0.232 -14.582  1.00  0.00     0.293 HD
ENDBRANCH   3   8
ENDBRANCH   1   2
BRANCH   1  10
ATOM     10  C   UNL     1      21.946  -6.525 -12.491  1.00  0.00     0.120 C 
BRANCH  10  11
ATOM     11  N   UNL     1      22.513  -7.816 -12.860  1.00  0.00    -0.356 N 
ATOM     12  C   UNL     1      21.784  -8.955 -12.767  1.00  0.00     0.185 C 
ATOM     13  N   UNL     1      20.509  -9.064 -12.658  1.00  0.00    -0.270 NA
ATOM     14  N   UNL     1      22.533 -10.068 -12.793  1.00  0.00    -0.370 N 
ATOM     15  H   UNL     1      23.482  -7.941 -12.587  1.00  0.00     0.163 HD
ATOM     16  H   UNL     1      20.081  -8.140 -12.657  1.00  0.00     0.191 HD
ATOM     17  H   UNL     1      23.302 -10.046 -13.448  1.00  0.00     0.159 HD
ATOM     18  H   UNL     1      21.936 -10.872 -12.949  1.00  0.00     0.159 HD
ENDBRANCH  10  11
ENDBRANCH   1  10
TORSDOF 4
ENDMDL
MODEL 5
REMARK VINA RESULT:    -6.400      3.867      5.482
REMARK INTER + INTRA:          -7.945
REMARK INTER:                  -7.696
REMARK INTRA:                  -0.248
REMARK UNBOUND:                -0.235
REMARK SMILES [H]/N=C(/N)NCCc1ccc(O)cc1
REMARK SMILES IDX 7 1 8 2 11 3 10 4 13 5 9 6 14 7 12 8 6 10 5 11 3 12 2 13
REMARK SMILES IDX 4 14 1 16
REMARK H PARENT 12 9 5 15 4 17 4 18
ROOT
ATOM      1  C   UNL     1      20.745  -8.856  -9.640  1.00  0.00     0.057 C 
ENDROOT
BRANCH   1   2
ATOM      2  C   UNL     1      21.484  -8.038 -10.687  1.00  0.00    -0.046 A 
ATOM      3  C   UNL     1      22.845  -6.571 -12.657  1.00  0.00     0.115 A 
ATOM      4  C   UNL     1      22.748  -6.064 -11.369  1.00  0.00     0.046 A 
ATOM      5  C   UNL     1      22.292  -7.804 -12.973  1.00  0.00     0.046 A 
ATOM      6  C   UNL     1      22.082  -6.802 -10.387  1.00  0.00     0.007 A 
ATOM      7  C   UNL     1      21.615  -8.539 -11.991  1.00  0.00     0.007 A 
BRANCH   3   8
ATOM      8  O   UNL     1      23.486  -5.882 -13.644  1.00  0.00    -0.508 OA
ATOM      9  H   UNL     1      23.245  -4.947 -13.578  1.00  0.00     0.293 HD
ENDBRANCH   3   8
ENDBRANCH   1   2
BRANCH   1  10
ATOM     10  C   UNL     1      21.486 -10.130  -9.223  1.00  0.00     0.120 C 
BRANCH  10  11
ATOM     11  N   UNL     1      21.812 -10.168  -7.803  1.00  0.00    -0.356 N 
ATOM     12  C   UNL     1      23.030  -9.778  -7.352  1.00  0.00     0.185 C 
ATOM     13  N   UNL     1      23.912  -9.082  -7.975  1.00  0.00    -0.270 NA
ATOM     14  N   UNL     1      23.294 -10.201  -6.106  1.00  0.00    -0.370 N 
ATOM     15  H   UNL     1      21.445 -10.975  -7.310  1.00  0.00     0.163 HD
ATOM     16  H   UNL     1      23.567  -8.834  -8.900  1.00  0.00     0.191 HD
ATOM     17  H   UNL     1      22.513 -10.154  -5.468  1.00  0.00     0.159 HD
ATOM     18  H   UNL     1      24.099  -9.700  -5.745  1.00  0.00     0.159 HD
ENDBRANCH  10  11
ENDBRANCH   1  10
TORSDOF 4
ENDMDL
MODEL 6
REMARK VINA RESULT:    -6.387      4.299      5.858
REMARK INTER + INTRA:          -7.929
REMARK INTER:                  -7.778
REMARK INTRA:                  -0.152
REMARK UNBOUND:                -0.235
REMARK SMILES [H]/N=C(/N)NCCc1ccc(O)cc1
REMARK SMILES IDX 7 1 8 2 11 3 10 4 13 5 9 6 14 7 12 8 6 10 5 11 3 12 2 13
REMARK SMILES IDX 4 14 1 16
REMARK H PARENT 12 9 5 15 4 17 4 18
ROOT
ATOM      1  C   UNL     1      21.871 -10.477  -9.650  1.00  0.00     0.057 C 
ENDROOT
BRANCH   1   2
ATOM      2  C   UNL     1      21.716  -9.212 -10.478  1.00  0.00    -0.046 A 
ATOM      3  C   UNL     1      21.413  -6.905 -12.050  1.00  0.00     0.115 A 
ATOM      4  C   UNL     1      21.969  -6.802 -10.783  1.00  0.00     0.046 A 
ATOM      5  C   UNL     1      21.024  -8.138 -12.552  1.00  0.00     0.046 A 
ATOM      6  C   UNL     1      22.131  -7.954 -10.007  1.00  0.00     0.007 A 
ATOM      7  C   UNL     1      21.177  -9.291 -11.770  1.00  0.00     0.007 A 
BRANCH   3   8
ATOM      8  O   UNL     1      21.237  -5.806 -12.838  1.00  0.00    -0.508 OA
ATOM      9  H   UNL     1      22.053  -5.645 -13.334  1.00  0.00     0.293 HD
ENDBRANCH   3   8
ENDBRANCH   1   2
BRANCH   1  10
ATOM     10  C   UNL     1      23.327 -10.805  -9.301  1.00  0.00     0.120 C 
BRANCH  10  11
ATOM     11  N   UNL     1      23.455 -11.737  -8.187  1.00  0.00    -0.356 N 
ATOM     12  C   UNL     1      23.891 -11.323  -6.972  1.00  0.00     0.185 C 
ATOM     13  N   UNL     1      23.960 -10.118  -6.531  1.00  0.00    -0.270 NA
ATOM     14  N   UNL     1      24.291 -12.330  -6.180  1.00  0.00    -0.370 N 
ATOM     15  H   UNL     1      23.807 -12.652  -8.445  1.00  0.00     0.163 HD
ATOM     16  H   UNL     1      23.621  -9.470  -7.240  1.00  0.00     0.191 HD
ATOM     17  H   UNL     1      23.711 -13.156  -6.222  1.00  0.00     0.159 HD
ATOM     18  H   UNL     1      24.386 -11.992  -5.229  1.00  0.00     0.159 HD
ENDBRANCH  10  11
ENDBRANCH   1  10
TORSDOF 4
ENDMDL
MODEL 7
REMARK VINA RESULT:    -6.338      1.934      2.205
REMARK INTER + INTRA:          -7.870
REMARK INTER:                  -7.688
REMARK INTRA:                  -0.182
REMARK UNBOUND:                -0.235
REMARK SMILES [H]/N=C(/N)NCCc1ccc(O)cc1
REMARK SMILES IDX 7 1 8 2 11 3 10 4 13 5 9 6 14 7 12 8 6 10 5 11 3 12 2 13
REMARK SMILES IDX 4 14 1 16
REMARK H PARENT 12 9 5 15 4 17 4 18
ROOT
ATOM      1  C   UNL     1      21.609  -8.151 -12.213  1.00  0.00     0.057 C 
ENDROOT
BRANCH   1   2
ATOM      2  C   UNL     1      21.727  -8.791 -10.839  1.00  0.00    -0.046 A 
ATOM      3  C   UNL     1      21.959  -9.923  -8.280  1.00  0.00     0.115 A 
ATOM      4  C   UNL     1      21.765 -10.748  -9.379  1.00  0.00     0.046 A 
ATOM      5  C   UNL     1      22.058  -8.548  -8.438  1.00  0.00     0.046 A 
ATOM      6  C   UNL     1      21.663 -10.182 -10.653  1.00  0.00     0.007 A 
ATOM      7  C   UNL     1      21.945  -7.981  -9.715  1.00  0.00     0.007 A 
BRANCH   3   8
ATOM      8  O   UNL     1      22.063 -10.434  -7.020  1.00  0.00    -0.508 OA
ATOM      9  H   UNL     1      22.590  -9.827  -6.481  1.00  0.00     0.293 HD
ENDBRANCH   3   8
ENDBRANCH   1   2
BRANCH   1  10
ATOM     10  C   UNL     1      21.967  -6.661 -12.228  1.00  0.00     0.120 C 
BRANCH  10  11
ATOM     11  N   UNL     1      23.252  -6.385 -12.858  1.00  0.00    -0.356 N 
ATOM     12  C   UNL     1      23.915  -5.226 -12.622  1.00  0.00     0.185 C 
ATOM     13  N   UNL     1      23.718  -4.390 -11.667  1.00  0.00    -0.270 NA
ATOM     14  N   UNL     1      24.873  -4.970 -13.526  1.00  0.00    -0.370 N 
ATOM     15  H   UNL     1      23.321  -6.694 -13.821  1.00  0.00     0.163 HD
ATOM     16  H   UNL     1      22.967  -4.722 -11.065  1.00  0.00     0.191 HD
ATOM     17  H   UNL     1      25.410  -5.775 -13.814  1.00  0.00     0.159 HD
ATOM     18  H   UNL     1      25.472  -4.229 -13.179  1.00  0.00     0.159 HD
ENDBRANCH  10  11
ENDBRANCH   1  10
TORSDOF 4
ENDMDL
MODEL 8
REMARK VINA RESULT:    -6.223      1.679      2.265
REMARK INTER + INTRA:          -7.731
REMARK INTER:                  -7.587
REMARK INTRA:                  -0.144
REMARK UNBOUND:                -0.235
REMARK SMILES [H]/N=C(/N)NCCc1ccc(O)cc1
REMARK SMILES IDX 7 1 8 2 11 3 10 4 13 5 9 6 14 7 12 8 6 10 5 11 3 12 2 13
REMARK SMILES IDX 4 14 1 16
REMARK H PARENT 12 9 5 15 4 17 4 18
ROOT
ATOM      1  C   UNL     1      22.133  -9.058 -10.310  1.00  0.00     0.057 C 
ENDROOT
BRANCH   1   2
ATOM      2  C   UNL     1      22.686  -9.935  -9.198  1.00  0.00    -0.046 A 
ATOM      3  C   UNL     1      23.692 -11.600  -7.172  1.00  0.00     0.115 A 
ATOM      4  C   UNL     1      23.597 -10.233  -6.952  1.00  0.00     0.046 A 
ATOM      5  C   UNL     1      23.276 -12.150  -8.376  1.00  0.00     0.046 A 
ATOM      6  C   UNL     1      23.083  -9.408  -7.957  1.00  0.00     0.007 A 
ATOM      7  C   UNL     1      22.771 -11.322  -9.387  1.00  0.00     0.007 A 
BRANCH   3   8
ATOM      8  O   UNL     1      24.187 -12.439  -6.218  1.00  0.00    -0.508 OA
ATOM      9  H   UNL     1      25.149 -12.492  -6.320  1.00  0.00     0.293 HD
ENDBRANCH   3   8
ENDBRANCH   1   2
BRANCH   1  10
ATOM     10  C   UNL     1      22.113  -7.567  -9.962  1.00  0.00     0.120 C 
BRANCH  10  11
ATOM     11  N   UNL     1      22.576  -6.715 -11.050  1.00  0.00    -0.356 N 
ATOM     12  C   UNL     1      23.224  -5.550 -10.804  1.00  0.00     0.185 C 
ATOM     13  N   UNL     1      23.773  -5.175  -9.705  1.00  0.00    -0.270 NA
ATOM     14  N   UNL     1      23.261  -4.729 -11.865  1.00  0.00    -0.370 N 
ATOM     15  H   UNL     1      21.937  -6.657 -11.836  1.00  0.00     0.163 HD
ATOM     16  H   UNL     1      23.666  -5.900  -8.999  1.00  0.00     0.191 HD
ATOM     17  H   UNL     1      23.426  -5.188 -12.749  1.00  0.00     0.159 HD
ATOM     18  H   UNL     1      23.938  -3.993 -11.697  1.00  0.00     0.159 HD
ENDBRANCH  10  11
ENDBRANCH   1  10
TORSDOF 4
ENDMDL
MODEL 9
REMARK VINA RESULT:    -6.181      3.281      4.398
REMARK INTER + INTRA:          -7.681
REMARK INTER:                  -7.371
REMARK INTRA:                  -0.310
REMARK UNBOUND:                -0.235
REMARK SMILES [H]/N=C(/N)NCCc1ccc(O)cc1
REMARK SMILES IDX 7 1 8 2 11 3 10 4 13 5 9 6 14 7 12 8 6 10 5 11 3 12 2 13
REMARK SMILES IDX 4 14 1 16
REMARK H PARENT 12 9 5 15 4 17 4 18
ROOT
ATOM      1  C   UNL     1      23.787  -5.094 -12.158  1.00  0.00     0.057 C 
ENDROOT
BRANCH   1   2
ATOM      2  C   UNL     1      22.827  -6.229 -11.842  1.00  0.00    -0.046 A 
ATOM      3  C   UNL     1      21.057  -8.314 -11.204  1.00  0.00     0.115 A 
ATOM      4  C   UNL     1      21.544  -8.201 -12.499  1.00  0.00     0.046 A 
ATOM      5  C   UNL     1      21.453  -7.419 -10.221  1.00  0.00     0.046 A 
ATOM      6  C   UNL     1      22.435  -7.170 -12.810  1.00  0.00     0.007 A 
ATOM      7  C   UNL     1      22.338  -6.379 -10.536  1.00  0.00     0.007 A 
BRANCH   3   8
ATOM      8  O   UNL     1      20.186  -9.304 -10.859  1.00  0.00    -0.508 OA
ATOM      9  H   UNL     1      19.361  -8.900 -10.551  1.00  0.00     0.293 HD
ENDBRANCH   3   8
ENDBRANCH   1   2
BRANCH   1  10
ATOM     10  C   UNL     1      23.472  -4.374 -13.473  1.00  0.00     0.120 C 
BRANCH  10  11
ATOM     11  N   UNL     1      22.586  -3.229 -13.305  1.00  0.00    -0.356 N 
ATOM     12  C   UNL     1      21.316  -3.248 -13.777  1.00  0.00     0.185 C 
ATOM     13  N   UNL     1      20.627  -4.271 -14.135  1.00  0.00    -0.270 NA
ATOM     14  N   UNL     1      20.764  -2.028 -13.865  1.00  0.00    -0.370 N 
ATOM     15  H   UNL     1      23.040  -2.328 -13.419  1.00  0.00     0.163 HD
ATOM     16  H   UNL     1      21.175  -5.119 -14.008  1.00  0.00     0.191 HD
ATOM     17  H   UNL     1      20.976  -1.411 -13.094  1.00  0.00     0.159 HD
ATOM     18  H   UNL     1      19.763  -2.120 -14.001  1.00  0.00     0.159 HD
ENDBRANCH  10  11
ENDBRANCH   1  10
TORSDOF 4
ENDMDL
