MODEL 1
REMARK VINA RESULT:    -4.938      0.000      0.000
REMARK INTER + INTRA:          -6.090
REMARK INTER:                  -5.948
REMARK INTRA:                  -0.142
REMARK UNBOUND:                -0.142
REMARK SMILES [H]/N=C(/N)NCCc1ccc(O)cc1
REMARK SMILES IDX 7 1 8 2 11 3 10 4 13 5 9 6 14 7 12 8 6 10 5 11 3 12 2 13
REMARK SMILES IDX 4 14 1 16
REMARK H PARENT 12 9 5 15 4 17 4 18
ROOT
ATOM      1  C   UNL     1       7.384   6.032  -5.452  1.00  0.00     0.057 C 
ENDROOT
BRANCH   1   2
ATOM      2  C   UNL     1       8.180   4.741  -5.561  1.00  0.00    -0.046 A 
ATOM      3  C   UNL     1       9.694   2.384  -5.748  1.00  0.00     0.115 A 
ATOM      4  C   UNL     1       8.376   2.387  -6.180  1.00  0.00     0.046 A 
ATOM      5  C   UNL     1      10.274   3.539  -5.243  1.00  0.00     0.046 A 
ATOM      6  C   UNL     1       7.628   3.565  -6.098  1.00  0.00     0.007 A 
ATOM      7  C   UNL     1       9.521   4.717  -5.152  1.00  0.00     0.007 A 
BRANCH   3   8
ATOM      8  O   UNL     1      10.458   1.256  -5.810  1.00  0.00    -0.508 OA
ATOM      9  H   UNL     1      10.558   0.998  -6.738  1.00  0.00     0.293 HD
ENDBRANCH   3   8
ENDBRANCH   1   2
BRANCH   1  10
ATOM     10  C   UNL     1       6.787   6.268  -4.061  1.00  0.00     0.120 C 
BRANCH  10  11
ATOM     11  N   UNL     1       7.657   7.041  -3.184  1.00  0.00    -0.356 N 
ATOM     12  C   UNL     1       7.266   7.387  -1.933  1.00  0.00     0.185 C 
ATOM     13  N   UNL     1       6.302   6.887  -1.246  1.00  0.00    -0.270 NA
ATOM     14  N   UNL     1       8.003   8.374  -1.401  1.00  0.00    -0.370 N 
ATOM     15  H   UNL     1       8.182   7.772  -3.653  1.00  0.00     0.163 HD
ATOM     16  H   UNL     1       5.843   6.151  -1.778  1.00  0.00     0.191 HD
ATOM     17  H   UNL     1       8.993   8.313  -1.590  1.00  0.00     0.159 HD
ATOM     18  H   UNL     1       7.818   8.431  -0.405  1.00  0.00     0.159 HD
ENDBRANCH  10  11
ENDBRANCH   1  10
TORSDOF 4
ENDMDL
MODEL 2
REMARK VINA RESULT:    -4.817      0.229      1.353
REMARK INTER + INTRA:          -5.945
REMARK INTER:                  -5.790
REMARK INTRA:                  -0.156
REMARK UNBOUND:                -0.142
REMARK SMILES [H]/N=C(/N)NCCc1ccc(O)cc1
REMARK SMILES IDX 7 1 8 2 11 3 10 4 13 5 9 6 14 7 12 8 6 10 5 11 3 12 2 13
REMARK SMILES IDX 4 14 1 16
REMARK H PARENT 12 9 5 15 4 17 4 18
ROOT
ATOM      1  C   UNL     1       7.414   6.273  -5.479  1.00  0.00     0.057 C 
ENDROOT
BRANCH   1   2
ATOM      2  C   UNL     1       8.149   4.947  -5.591  1.00  0.00    -0.046 A 
ATOM      3  C   UNL     1       9.458   2.472  -5.813  1.00  0.00     0.115 A 
ATOM      4  C   UNL     1      10.133   3.559  -5.274  1.00  0.00     0.046 A 
ATOM      5  C   UNL     1       8.139   2.595  -6.224  1.00  0.00     0.046 A 
ATOM      6  C   UNL     1       9.474   4.786  -5.152  1.00  0.00     0.007 A 
ATOM      7  C   UNL     1       7.482   3.828  -6.112  1.00  0.00     0.007 A 
BRANCH   3   8
ATOM      8  O   UNL     1      10.064   1.258  -5.949  1.00  0.00    -0.508 OA
ATOM      9  H   UNL     1       9.624   0.624  -5.365  1.00  0.00     0.293 HD
ENDBRANCH   3   8
ENDBRANCH   1   2
BRANCH   1  10
ATOM     10  C   UNL     1       6.772   6.504  -4.108  1.00  0.00     0.120 C 
BRANCH  10  11
ATOM     11  N   UNL     1       7.637   7.222  -3.180  1.00  0.00    -0.356 N 
ATOM     12  C   UNL     1       7.247   7.473  -1.907  1.00  0.00     0.185 C 
ATOM     13  N   UNL     1       6.291   6.914  -1.254  1.00  0.00    -0.270 NA
ATOM     14  N   UNL     1       7.974   8.428  -1.307  1.00  0.00    -0.370 N 
ATOM     15  H   UNL     1       8.152   7.990  -3.598  1.00  0.00     0.163 HD
ATOM     16  H   UNL     1       5.838   6.213  -1.836  1.00  0.00     0.191 HD
ATOM     17  H   UNL     1       8.964   8.391  -1.503  1.00  0.00     0.159 HD
ATOM     18  H   UNL     1       7.793   8.412  -0.310  1.00  0.00     0.159 HD
ENDBRANCH  10  11
ENDBRANCH   1  10
TORSDOF 4
ENDMDL
MODEL 3
REMARK VINA RESULT:    -4.612      3.804      5.772
REMARK INTER + INTRA:          -5.698
REMARK INTER:                  -5.418
REMARK INTRA:                  -0.281
REMARK UNBOUND:                -0.142
REMARK SMILES [H]/N=C(/N)NCCc1ccc(O)cc1
REMARK SMILES IDX 7 1 8 2 11 3 10 4 13 5 9 6 14 7 12 8 6 10 5 11 3 12 2 13
REMARK SMILES IDX 4 14 1 16
REMARK H PARENT 12 9 5 15 4 17 4 18
ROOT
ATOM      1  C   UNL     1       5.837   4.787  -4.806  1.00  0.00     0.057 C 
ENDROOT
BRANCH   1   2
ATOM      2  C   UNL     1       5.873   6.021  -3.919  1.00  0.00    -0.046 A 
ATOM      3  C   UNL     1       5.910   8.329  -2.319  1.00  0.00     0.115 A 
ATOM      4  C   UNL     1       6.660   7.223  -1.944  1.00  0.00     0.046 A 
ATOM      5  C   UNL     1       5.159   8.310  -3.485  1.00  0.00     0.046 A 
ATOM      6  C   UNL     1       6.650   6.081  -2.749  1.00  0.00     0.007 A 
ATOM      7  C   UNL     1       5.141   7.160  -4.287  1.00  0.00     0.007 A 
BRANCH   3   8
ATOM      8  O   UNL     1       5.892   9.463  -1.562  1.00  0.00    -0.508 OA
ATOM      9  H   UNL     1       5.833  10.229  -2.150  1.00  0.00     0.293 HD
ENDBRANCH   3   8
ENDBRANCH   1   2
BRANCH   1  10
ATOM     10  C   UNL     1       6.987   4.726  -5.816  1.00  0.00     0.120 C 
BRANCH  10  11
ATOM     11  N   UNL     1       8.156   4.015  -5.315  1.00  0.00    -0.356 N 
ATOM     12  C   UNL     1       9.363   4.625  -5.221  1.00  0.00     0.185 C 
ATOM     13  N   UNL     1       9.608   5.886  -5.247  1.00  0.00    -0.270 NA
ATOM     14  N   UNL     1      10.384   3.765  -5.092  1.00  0.00    -0.370 N 
ATOM     15  H   UNL     1       8.221   3.049  -5.620  1.00  0.00     0.163 HD
ATOM     16  H   UNL     1       8.739   6.406  -5.346  1.00  0.00     0.191 HD
ATOM     17  H   UNL     1      10.201   2.978  -4.486  1.00  0.00     0.159 HD
ATOM     18  H   UNL     1      11.215   4.270  -4.802  1.00  0.00     0.159 HD
ENDBRANCH  10  11
ENDBRANCH   1  10
TORSDOF 4
ENDMDL
MODEL 4
REMARK VINA RESULT:    -4.520     13.788     15.328
REMARK INTER + INTRA:          -5.587
REMARK INTER:                  -5.396
REMARK INTRA:                  -0.191
REMARK UNBOUND:                -0.142
REMARK SMILES [H]/N=C(/N)NCCc1ccc(O)cc1
REMARK SMILES IDX 7 1 8 2 11 3 10 4 13 5 9 6 14 7 12 8 6 10 5 11 3 12 2 13
REMARK SMILES IDX 4 14 1 16
REMARK H PARENT 12 9 5 15 4 17 4 18
ROOT
ATOM      1  C   UNL     1       5.721   2.099   9.333  1.00  0.00     0.057 C 
ENDROOT
BRANCH   1   2
ATOM      2  C   UNL     1       4.241   1.762   9.421  1.00  0.00    -0.046 A 
ATOM      3  C   UNL     1       1.498   1.188   9.610  1.00  0.00     0.115 A 
ATOM      4  C   UNL     1       2.372   0.215   9.145  1.00  0.00     0.046 A 
ATOM      5  C   UNL     1       1.972   2.432   9.999  1.00  0.00     0.046 A 
ATOM      6  C   UNL     1       3.738   0.499   9.065  1.00  0.00     0.007 A 
ATOM      7  C   UNL     1       3.340   2.720   9.908  1.00  0.00     0.007 A 
BRANCH   3   8
ATOM      8  O   UNL     1       0.159   0.952   9.703  1.00  0.00    -0.508 OA
ATOM      9  H   UNL     1       0.013  -0.005   9.740  1.00  0.00     0.293 HD
ENDBRANCH   3   8
ENDBRANCH   1   2
BRANCH   1  10
ATOM     10  C   UNL     1       6.635   0.875   9.444  1.00  0.00     0.120 C 
BRANCH  10  11
ATOM     11  N   UNL     1       7.726   0.882   8.478  1.00  0.00    -0.356 N 
ATOM     12  C   UNL     1       7.904  -0.145   7.612  1.00  0.00     0.185 C 
ATOM     13  N   UNL     1       7.060  -1.060   7.295  1.00  0.00    -0.270 NA
ATOM     14  N   UNL     1       9.124  -0.162   7.053  1.00  0.00    -0.370 N 
ATOM     15  H   UNL     1       8.599   1.257   8.835  1.00  0.00     0.163 HD
ATOM     16  H   UNL     1       6.185  -0.912   7.795  1.00  0.00     0.191 HD
ATOM     17  H   UNL     1       9.484   0.745   6.795  1.00  0.00     0.159 HD
ATOM     18  H   UNL     1       9.123  -0.798   6.262  1.00  0.00     0.159 HD
ENDBRANCH  10  11
ENDBRANCH   1  10
TORSDOF 4
ENDMDL
MODEL 5
REMARK VINA RESULT:    -4.436      4.403      5.919
REMARK INTER + INTRA:          -5.486
REMARK INTER:                  -5.343
REMARK INTRA:                  -0.143
REMARK UNBOUND:                -0.142
REMARK SMILES [H]/N=C(/N)NCCc1ccc(O)cc1
REMARK SMILES IDX 7 1 8 2 11 3 10 4 13 5 9 6 14 7 12 8 6 10 5 11 3 12 2 13
REMARK SMILES IDX 4 14 1 16
REMARK H PARENT 12 9 5 15 4 17 4 18
ROOT
ATOM      1  C   UNL     1       4.062   8.703  -1.285  1.00  0.00     0.057 C 
ENDROOT
BRANCH   1   2
ATOM      2  C   UNL     1       5.254   8.037  -1.954  1.00  0.00    -0.046 A 
ATOM      3  C   UNL     1       7.422   6.781  -3.223  1.00  0.00     0.115 A 
ATOM      4  C   UNL     1       7.636   7.510  -2.062  1.00  0.00     0.046 A 
ATOM      5  C   UNL     1       6.144   6.652  -3.749  1.00  0.00     0.046 A 
ATOM      6  C   UNL     1       6.554   8.123  -1.425  1.00  0.00     0.007 A 
ATOM      7  C   UNL     1       5.061   7.276  -3.116  1.00  0.00     0.007 A 
BRANCH   3   8
ATOM      8  O   UNL     1       8.450   6.168  -3.875  1.00  0.00    -0.508 OA
ATOM      9  H   UNL     1       8.450   5.228  -3.643  1.00  0.00     0.293 HD
ENDBRANCH   3   8
ENDBRANCH   1   2
BRANCH   1  10
ATOM     10  C   UNL     1       3.889  10.176  -1.669  1.00  0.00     0.120 C 
BRANCH  10  11
ATOM     11  N   UNL     1       3.585  11.035  -0.532  1.00  0.00    -0.356 N 
ATOM     12  C   UNL     1       4.314  12.150  -0.279  1.00  0.00     0.185 C 
ATOM     13  N   UNL     1       5.111  12.764  -1.078  1.00  0.00    -0.270 NA
ATOM     14  N   UNL     1       4.150  12.620   0.967  1.00  0.00    -0.370 N 
ATOM     15  H   UNL     1       3.316  10.536   0.310  1.00  0.00     0.163 HD
ATOM     16  H   UNL     1       5.127  12.294  -1.981  1.00  0.00     0.191 HD
ATOM     17  H   UNL     1       3.202  12.583   1.312  1.00  0.00     0.159 HD
ATOM     18  H   UNL     1       4.530  13.559   1.025  1.00  0.00     0.159 HD
ENDBRANCH  10  11
ENDBRANCH   1  10
TORSDOF 4
ENDMDL
MODEL 6
REMARK VINA RESULT:    -4.433      6.211      9.179
REMARK INTER + INTRA:          -5.483
REMARK INTER:                  -5.333
REMARK INTRA:                  -0.149
REMARK UNBOUND:                -0.142
REMARK SMILES [H]/N=C(/N)NCCc1ccc(O)cc1
REMARK SMILES IDX 7 1 8 2 11 3 10 4 13 5 9 6 14 7 12 8 6 10 5 11 3 12 2 13
REMARK SMILES IDX 4 14 1 16
REMARK H PARENT 12 9 5 15 4 17 4 18
ROOT
ATOM      1  C   UNL     1       4.691   9.501  -2.176  1.00  0.00     0.057 C 
ENDROOT
BRANCH   1   2
ATOM      2  C   UNL     1       4.009  10.554  -1.317  1.00  0.00    -0.046 A 
ATOM      3  C   UNL     1       2.700  12.478   0.256  1.00  0.00     0.115 A 
ATOM      4  C   UNL     1       4.061  12.602   0.013  1.00  0.00     0.046 A 
ATOM      5  C   UNL     1       1.980  11.424  -0.288  1.00  0.00     0.046 A 
ATOM      6  C   UNL     1       4.707  11.650  -0.781  1.00  0.00     0.007 A 
ATOM      7  C   UNL     1       2.630  10.464  -1.075  1.00  0.00     0.007 A 
BRANCH   3   8
ATOM      8  O   UNL     1       2.032  13.383   1.025  1.00  0.00    -0.508 OA
ATOM      9  H   UNL     1       1.225  13.651   0.561  1.00  0.00     0.293 HD
ENDBRANCH   3   8
ENDBRANCH   1   2
BRANCH   1  10
ATOM     10  C   UNL     1       5.139   8.266  -1.389  1.00  0.00     0.120 C 
BRANCH  10  11
ATOM     11  N   UNL     1       6.036   7.398  -2.142  1.00  0.00    -0.356 N 
ATOM     12  C   UNL     1       7.369   7.640  -2.193  1.00  0.00     0.185 C 
ATOM     13  N   UNL     1       8.058   8.399  -1.420  1.00  0.00    -0.270 NA
ATOM     14  N   UNL     1       7.988   6.989  -3.189  1.00  0.00    -0.370 N 
ATOM     15  H   UNL     1       5.657   7.069  -3.024  1.00  0.00     0.163 HD
ATOM     16  H   UNL     1       7.454   8.818  -0.716  1.00  0.00     0.191 HD
ATOM     17  H   UNL     1       7.670   6.042  -3.338  1.00  0.00     0.159 HD
ATOM     18  H   UNL     1       8.991   7.024  -3.042  1.00  0.00     0.159 HD
ENDBRANCH  10  11
ENDBRANCH   1  10
TORSDOF 4
ENDMDL
MODEL 7
REMARK VINA RESULT:    -4.429     12.952     14.804
REMARK INTER + INTRA:          -5.478
REMARK INTER:                  -5.165
REMARK INTRA:                  -0.313
REMARK UNBOUND:                -0.142
REMARK SMILES [H]/N=C(/N)NCCc1ccc(O)cc1
REMARK SMILES IDX 7 1 8 2 11 3 10 4 13 5 9 6 14 7 12 8 6 10 5 11 3 12 2 13
REMARK SMILES IDX 4 14 1 16
REMARK H PARENT 12 9 5 15 4 17 4 18
ROOT
ATOM      1  C   UNL     1       1.584   1.705   9.642  1.00  0.00     0.057 C 
ENDROOT
BRANCH   1   2
ATOM      2  C   UNL     1       3.055   1.328   9.719  1.00  0.00    -0.046 A 
ATOM      3  C   UNL     1       5.786   0.685   9.844  1.00  0.00     0.115 A 
ATOM      4  C   UNL     1       4.838  -0.317  10.000  1.00  0.00     0.046 A 
ATOM      5  C   UNL     1       5.395   1.995   9.608  1.00  0.00     0.046 A 
ATOM      6  C   UNL     1       3.480   0.004   9.924  1.00  0.00     0.007 A 
ATOM      7  C   UNL     1       4.033   2.318   9.543  1.00  0.00     0.007 A 
BRANCH   3   8
ATOM      8  O   UNL     1       7.121   0.414   9.913  1.00  0.00    -0.508 OA
ATOM      9  H   UNL     1       7.368  -0.127   9.148  1.00  0.00     0.293 HD
ENDBRANCH   3   8
ENDBRANCH   1   2
BRANCH   1  10
ATOM     10  C   UNL     1       0.934   1.361   8.298  1.00  0.00     0.120 C 
BRANCH  10  11
ATOM     11  N   UNL     1       1.108   2.401   7.292  1.00  0.00    -0.356 N 
ATOM     12  C   UNL     1       2.069   2.304   6.341  1.00  0.00     0.185 C 
ATOM     13  N   UNL     1       2.723   1.256   5.989  1.00  0.00    -0.270 NA
ATOM     14  N   UNL     1       2.333   3.471   5.733  1.00  0.00    -0.370 N 
ATOM     15  H   UNL     1       0.986   3.345   7.641  1.00  0.00     0.163 HD
ATOM     16  H   UNL     1       2.411   0.454   6.534  1.00  0.00     0.191 HD
ATOM     17  H   UNL     1       1.521   4.037   5.533  1.00  0.00     0.159 HD
ATOM     18  H   UNL     1       2.880   3.298   4.896  1.00  0.00     0.159 HD
ENDBRANCH  10  11
ENDBRANCH   1  10
TORSDOF 4
ENDMDL
MODEL 8
REMARK VINA RESULT:    -4.412      4.081      6.072
REMARK INTER + INTRA:          -5.457
REMARK INTER:                  -5.296
REMARK INTRA:                  -0.162
REMARK UNBOUND:                -0.142
REMARK SMILES [H]/N=C(/N)NCCc1ccc(O)cc1
REMARK SMILES IDX 7 1 8 2 11 3 10 4 13 5 9 6 14 7 12 8 6 10 5 11 3 12 2 13
REMARK SMILES IDX 4 14 1 16
REMARK H PARENT 12 9 5 15 4 17 4 18
ROOT
ATOM      1  C   UNL     1       7.687   5.504  -4.921  1.00  0.00     0.057 C 
ENDROOT
BRANCH   1   2
ATOM      2  C   UNL     1       7.017   6.521  -4.011  1.00  0.00    -0.046 A 
ATOM      3  C   UNL     1       5.817   8.387  -2.290  1.00  0.00     0.115 A 
ATOM      4  C   UNL     1       5.213   8.085  -3.502  1.00  0.00     0.046 A 
ATOM      5  C   UNL     1       6.996   7.760  -1.914  1.00  0.00     0.046 A 
ATOM      6  C   UNL     1       5.805   7.146  -4.351  1.00  0.00     0.007 A 
ATOM      7  C   UNL     1       7.596   6.827  -2.771  1.00  0.00     0.007 A 
BRANCH   3   8
ATOM      8  O   UNL     1       5.272   9.297  -1.434  1.00  0.00    -0.508 OA
ATOM      9  H   UNL     1       4.331   9.396  -1.642  1.00  0.00     0.293 HD
ENDBRANCH   3   8
ENDBRANCH   1   2
BRANCH   1  10
ATOM     10  C   UNL     1       9.172   5.288  -4.611  1.00  0.00     0.120 C 
BRANCH  10  11
ATOM     11  N   UNL     1       9.931   4.792  -5.751  1.00  0.00    -0.356 N 
ATOM     12  C   UNL     1      10.377   3.512  -5.795  1.00  0.00     0.185 C 
ATOM     13  N   UNL     1       9.989   2.521  -5.077  1.00  0.00    -0.270 NA
ATOM     14  N   UNL     1      11.340   3.317  -6.710  1.00  0.00    -0.370 N 
ATOM     15  H   UNL     1      10.594   5.458  -6.134  1.00  0.00     0.163 HD
ATOM     16  H   UNL     1       9.257   2.823  -4.437  1.00  0.00     0.191 HD
ATOM     17  H   UNL     1      11.198   3.802  -7.584  1.00  0.00     0.159 HD
ATOM     18  H   UNL     1      11.469   2.322  -6.855  1.00  0.00     0.159 HD
ENDBRANCH  10  11
ENDBRANCH   1  10
TORSDOF 4
ENDMDL
MODEL 9
REMARK VINA RESULT:    -4.395     12.411     13.648
REMARK INTER + INTRA:          -5.437
REMARK INTER:                  -5.288
REMARK INTRA:                  -0.149
REMARK UNBOUND:                -0.142
REMARK SMILES [H]/N=C(/N)NCCc1ccc(O)cc1
REMARK SMILES IDX 7 1 8 2 11 3 10 4 13 5 9 6 14 7 12 8 6 10 5 11 3 12 2 13
REMARK SMILES IDX 4 14 1 16
REMARK H PARENT 12 9 5 15 4 17 4 18
ROOT
ATOM      1  C   UNL     1      -1.239   5.557   5.573  1.00  0.00     0.057 C 
ENDROOT
BRANCH   1   2
ATOM      2  C   UNL     1      -0.168   4.517   5.863  1.00  0.00    -0.046 A 
ATOM      3  C   UNL     1       1.832   2.607   6.348  1.00  0.00     0.115 A 
ATOM      4  C   UNL     1       0.777   2.736   7.240  1.00  0.00     0.046 A 
ATOM      5  C   UNL     1       1.895   3.399   5.211  1.00  0.00     0.046 A 
ATOM      6  C   UNL     1      -0.224   3.679   6.989  1.00  0.00     0.007 A 
ATOM      7  C   UNL     1       0.897   4.352   4.965  1.00  0.00     0.007 A 
BRANCH   3   8
ATOM      8  O   UNL     1       2.829   1.700   6.555  1.00  0.00    -0.508 OA
ATOM      9  H   UNL     1       3.104   1.747   7.483  1.00  0.00     0.293 HD
ENDBRANCH   3   8
ENDBRANCH   1   2
BRANCH   1  10
ATOM     10  C   UNL     1      -1.375   6.618   6.670  1.00  0.00     0.120 C 
BRANCH  10  11
ATOM     11  N   UNL     1      -0.768   7.894   6.314  1.00  0.00    -0.356 N 
ATOM     12  C   UNL     1      -0.619   8.881   7.232  1.00  0.00     0.185 C 
ATOM     13  N   UNL     1      -0.680   8.778   8.511  1.00  0.00    -0.270 NA
ATOM     14  N   UNL     1      -0.387  10.084   6.685  1.00  0.00    -0.370 N 
ATOM     15  H   UNL     1      -1.029   8.241   5.397  1.00  0.00     0.163 HD
ATOM     16  H   UNL     1      -0.857   7.811   8.773  1.00  0.00     0.191 HD
ATOM     17  H   UNL     1       0.237  10.074   5.890  1.00  0.00     0.159 HD
ATOM     18  H   UNL     1      -0.062  10.723   7.402  1.00  0.00     0.159 HD
ENDBRANCH  10  11
ENDBRANCH   1  10
TORSDOF 4
ENDMDL
