MODEL 1
REMARK VINA RESULT:    -5.106      0.000      0.000
REMARK INTER + INTRA:          -6.263
REMARK INTER:                  -6.151
REMARK INTRA:                  -0.112
REMARK UNBOUND:                -0.112
REMARK SMILES [H]/N=C(/N)NCCc1ccc(O)cc1
REMARK SMILES IDX 7 1 8 2 11 3 10 4 13 5 9 6 14 7 12 8 6 10 5 11 3 12 2 13
REMARK SMILES IDX 4 14 1 16
REMARK H PARENT 12 9 5 15 4 17 4 18
ROOT
ATOM      1  C   UNL     1       7.685   5.999  -5.823  1.00  0.00     0.057 C 
ENDROOT
BRANCH   1   2
ATOM      2  C   UNL     1       8.868   5.128  -6.217  1.00  0.00    -0.046 A 
ATOM      3  C   UNL     1      11.043   3.533  -6.998  1.00  0.00     0.115 A 
ATOM      4  C   UNL     1      10.584   3.473  -5.690  1.00  0.00     0.046 A 
ATOM      5  C   UNL     1      10.424   4.359  -7.925  1.00  0.00     0.046 A 
ATOM      6  C   UNL     1       9.493   4.258  -5.307  1.00  0.00     0.007 A 
ATOM      7  C   UNL     1       9.336   5.154  -7.539  1.00  0.00     0.007 A 
BRANCH   3   8
ATOM      8  O   UNL     1      12.105   2.785  -7.412  1.00  0.00    -0.508 OA
ATOM      9  H   UNL     1      11.929   1.855  -7.208  1.00  0.00     0.293 HD
ENDBRANCH   3   8
ENDBRANCH   1   2
BRANCH   1  10
ATOM     10  C   UNL     1       7.291   5.866  -4.349  1.00  0.00     0.120 C 
BRANCH  10  11
ATOM     11  N   UNL     1       7.999   6.797  -3.478  1.00  0.00    -0.356 N 
ATOM     12  C   UNL     1       7.475   7.183  -2.289  1.00  0.00     0.185 C 
ATOM     13  N   UNL     1       6.523   6.623  -1.633  1.00  0.00    -0.270 NA
ATOM     14  N   UNL     1       8.053   8.285  -1.788  1.00  0.00    -0.370 N 
ATOM     15  H   UNL     1       8.473   7.549  -3.967  1.00  0.00     0.163 HD
ATOM     16  H   UNL     1       6.192   5.803  -2.135  1.00  0.00     0.191 HD
ATOM     17  H   UNL     1       9.055   8.327  -1.903  1.00  0.00     0.159 HD
ATOM     18  H   UNL     1       7.787   8.392  -0.815  1.00  0.00     0.159 HD
ENDBRANCH  10  11
ENDBRANCH   1  10
TORSDOF 4
ENDMDL
MODEL 2
REMARK VINA RESULT:    -5.050     14.528     16.664
REMARK INTER + INTRA:          -6.196
REMARK INTER:                  -6.047
REMARK INTRA:                  -0.148
REMARK UNBOUND:                -0.112
REMARK SMILES [H]/N=C(/N)NCCc1ccc(O)cc1
REMARK SMILES IDX 7 1 8 2 11 3 10 4 13 5 9 6 14 7 12 8 6 10 5 11 3 12 2 13
REMARK SMILES IDX 4 14 1 16
REMARK H PARENT 12 9 5 15 4 17 4 18
ROOT
ATOM      1  C   UNL     1       5.925   1.933   9.319  1.00  0.00     0.057 C 
ENDROOT
BRANCH   1   2
ATOM      2  C   UNL     1       4.526   1.627   9.828  1.00  0.00    -0.046 A 
ATOM      3  C   UNL     1       1.949   1.008  10.757  1.00  0.00     0.115 A 
ATOM      4  C   UNL     1       2.322   2.336  10.606  1.00  0.00     0.046 A 
ATOM      5  C   UNL     1       2.831  -0.014  10.435  1.00  0.00     0.046 A 
ATOM      6  C   UNL     1       3.601   2.641  10.130  1.00  0.00     0.007 A 
ATOM      7  C   UNL     1       4.117   0.293   9.969  1.00  0.00     0.007 A 
BRANCH   3   8
ATOM      8  O   UNL     1       0.712   0.667  11.219  1.00  0.00    -0.508 OA
ATOM      9  H   UNL     1       0.793   0.373  12.138  1.00  0.00     0.293 HD
ENDBRANCH   3   8
ENDBRANCH   1   2
BRANCH   1  10
ATOM     10  C   UNL     1       6.813   0.692   9.183  1.00  0.00     0.120 C 
BRANCH  10  11
ATOM     11  N   UNL     1       7.951   0.893   8.295  1.00  0.00    -0.356 N 
ATOM     12  C   UNL     1       8.279  -0.026   7.354  1.00  0.00     0.185 C 
ATOM     13  N   UNL     1       7.548  -0.981   6.902  1.00  0.00    -0.270 NA
ATOM     14  N   UNL     1       9.524   0.124   6.877  1.00  0.00    -0.370 N 
ATOM     15  H   UNL     1       8.760   1.313   8.740  1.00  0.00     0.163 HD
ATOM     16  H   UNL     1       6.636  -0.964   7.354  1.00  0.00     0.191 HD
ATOM     17  H   UNL     1       9.807   1.082   6.726  1.00  0.00     0.159 HD
ATOM     18  H   UNL     1       9.630  -0.431   6.034  1.00  0.00     0.159 HD
ENDBRANCH  10  11
ENDBRANCH   1  10
TORSDOF 4
ENDMDL
MODEL 3
REMARK VINA RESULT:    -4.818     15.868     17.362
REMARK INTER + INTRA:          -5.917
REMARK INTER:                  -5.736
REMARK INTRA:                  -0.181
REMARK UNBOUND:                -0.112
REMARK SMILES [H]/N=C(/N)NCCc1ccc(O)cc1
REMARK SMILES IDX 7 1 8 2 11 3 10 4 13 5 9 6 14 7 12 8 6 10 5 11 3 12 2 13
REMARK SMILES IDX 4 14 1 16
REMARK H PARENT 12 9 5 15 4 17 4 18
ROOT
ATOM      1  C   UNL     1       4.057   2.160   8.873  1.00  0.00     0.057 C 
ENDROOT
BRANCH   1   2
ATOM      2  C   UNL     1       2.697   2.178   9.552  1.00  0.00    -0.046 A 
ATOM      3  C   UNL     1       0.163   2.229  10.761  1.00  0.00     0.115 A 
ATOM      4  C   UNL     1       1.287   1.982  11.536  1.00  0.00     0.046 A 
ATOM      5  C   UNL     1       0.284   2.470   9.400  1.00  0.00     0.046 A 
ATOM      6  C   UNL     1       2.549   1.970  10.935  1.00  0.00     0.007 A 
ATOM      7  C   UNL     1       1.548   2.448   8.795  1.00  0.00     0.007 A 
BRANCH   3   8
ATOM      8  O   UNL     1      -1.085   2.249  11.309  1.00  0.00    -0.508 OA
ATOM      9  H   UNL     1      -1.408   3.162  11.316  1.00  0.00     0.293 HD
ENDBRANCH   3   8
ENDBRANCH   1   2
BRANCH   1  10
ATOM     10  C   UNL     1       5.229   2.020   9.850  1.00  0.00     0.120 C 
BRANCH  10  11
ATOM     11  N   UNL     1       5.709   0.651   9.980  1.00  0.00    -0.356 N 
ATOM     12  C   UNL     1       6.721   0.184   9.209  1.00  0.00     0.185 C 
ATOM     13  N   UNL     1       7.565   0.870   8.524  1.00  0.00    -0.270 NA
ATOM     14  N   UNL     1       6.802  -1.155   9.191  1.00  0.00    -0.370 N 
ATOM     15  H   UNL     1       4.978  -0.036  10.135  1.00  0.00     0.163 HD
ATOM     16  H   UNL     1       7.380   1.864   8.641  1.00  0.00     0.191 HD
ATOM     17  H   UNL     1       6.638  -1.601  10.083  1.00  0.00     0.159 HD
ATOM     18  H   UNL     1       7.693  -1.433   8.796  1.00  0.00     0.159 HD
ENDBRANCH  10  11
ENDBRANCH   1  10
TORSDOF 4
ENDMDL
MODEL 4
REMARK VINA RESULT:    -4.768     15.981     17.736
REMARK INTER + INTRA:          -5.856
REMARK INTER:                  -5.613
REMARK INTRA:                  -0.243
REMARK UNBOUND:                -0.112
REMARK SMILES [H]/N=C(/N)NCCc1ccc(O)cc1
REMARK SMILES IDX 7 1 8 2 11 3 10 4 13 5 9 6 14 7 12 8 6 10 5 11 3 12 2 13
REMARK SMILES IDX 4 14 1 16
REMARK H PARENT 12 9 5 15 4 17 4 18
ROOT
ATOM      1  C   UNL     1       3.389   2.282   9.578  1.00  0.00     0.057 C 
ENDROOT
BRANCH   1   2
ATOM      2  C   UNL     1       2.517   1.203  10.199  1.00  0.00    -0.046 A 
ATOM      3  C   UNL     1       0.947  -0.826  11.340  1.00  0.00     0.115 A 
ATOM      4  C   UNL     1       0.366   0.394  11.024  1.00  0.00     0.046 A 
ATOM      5  C   UNL     1       2.289  -1.056  11.079  1.00  0.00     0.046 A 
ATOM      6  C   UNL     1       1.146   1.398  10.444  1.00  0.00     0.007 A 
ATOM      7  C   UNL     1       3.074  -0.046  10.507  1.00  0.00     0.007 A 
BRANCH   3   8
ATOM      8  O   UNL     1       0.221  -1.831  11.908  1.00  0.00    -0.508 OA
ATOM      9  H   UNL     1       0.122  -1.648  12.853  1.00  0.00     0.293 HD
ENDBRANCH   3   8
ENDBRANCH   1   2
BRANCH   1  10
ATOM     10  C   UNL     1       4.835   2.268  10.084  1.00  0.00     0.120 C 
BRANCH  10  11
ATOM     11  N   UNL     1       5.796   1.858   9.068  1.00  0.00    -0.356 N 
ATOM     12  C   UNL     1       6.672   0.849   9.297  1.00  0.00     0.185 C 
ATOM     13  N   UNL     1       6.617  -0.045  10.218  1.00  0.00    -0.270 NA
ATOM     14  N   UNL     1       7.700   0.833   8.434  1.00  0.00    -0.370 N 
ATOM     15  H   UNL     1       6.201   2.624   8.541  1.00  0.00     0.163 HD
ATOM     16  H   UNL     1       5.785   0.095  10.787  1.00  0.00     0.191 HD
ATOM     17  H   UNL     1       7.452   1.041   7.477  1.00  0.00     0.159 HD
ATOM     18  H   UNL     1       8.186  -0.055   8.506  1.00  0.00     0.159 HD
ENDBRANCH  10  11
ENDBRANCH   1  10
TORSDOF 4
ENDMDL
MODEL 5
REMARK VINA RESULT:    -4.751     15.950     17.210
REMARK INTER + INTRA:          -5.835
REMARK INTER:                  -5.701
REMARK INTRA:                  -0.134
REMARK UNBOUND:                -0.112
REMARK SMILES [H]/N=C(/N)NCCc1ccc(O)cc1
REMARK SMILES IDX 7 1 8 2 11 3 10 4 13 5 9 6 14 7 12 8 6 10 5 11 3 12 2 13
REMARK SMILES IDX 4 14 1 16
REMARK H PARENT 12 9 5 15 4 17 4 18
ROOT
ATOM      1  C   UNL     1       5.293   1.805   9.503  1.00  0.00     0.057 C 
ENDROOT
BRANCH   1   2
ATOM      2  C   UNL     1       3.806   2.110   9.414  1.00  0.00    -0.046 A 
ATOM      3  C   UNL     1       1.057   2.673   9.305  1.00  0.00     0.115 A 
ATOM      4  C   UNL     1       1.749   2.404   8.132  1.00  0.00     0.046 A 
ATOM      5  C   UNL     1       1.709   2.646  10.529  1.00  0.00     0.046 A 
ATOM      6  C   UNL     1       3.114   2.111   8.190  1.00  0.00     0.007 A 
ATOM      7  C   UNL     1       3.080   2.363  10.587  1.00  0.00     0.007 A 
BRANCH   3   8
ATOM      8  O   UNL     1      -0.275   2.963   9.291  1.00  0.00    -0.508 OA
ATOM      9  H   UNL     1      -0.717   2.425   9.964  1.00  0.00     0.293 HD
ENDBRANCH   3   8
ENDBRANCH   1   2
BRANCH   1  10
ATOM     10  C   UNL     1       5.624   0.318   9.343  1.00  0.00     0.120 C 
BRANCH  10  11
ATOM     11  N   UNL     1       6.418  -0.216  10.443  1.00  0.00    -0.356 N 
ATOM     12  C   UNL     1       6.450  -1.546  10.705  1.00  0.00     0.185 C 
ATOM     13  N   UNL     1       6.089  -2.507   9.932  1.00  0.00    -0.270 NA
ATOM     14  N   UNL     1       6.917  -1.834  11.929  1.00  0.00    -0.370 N 
ATOM     15  H   UNL     1       6.408   0.354  11.282  1.00  0.00     0.163 HD
ATOM     16  H   UNL     1       5.763  -2.133   9.043  1.00  0.00     0.191 HD
ATOM     17  H   UNL     1       7.701  -1.271  12.226  1.00  0.00     0.159 HD
ATOM     18  H   UNL     1       7.130  -2.824  11.983  1.00  0.00     0.159 HD
ENDBRANCH  10  11
ENDBRANCH   1  10
TORSDOF 4
ENDMDL
MODEL 6
REMARK VINA RESULT:    -4.679     13.981     15.797
REMARK INTER + INTRA:          -5.749
REMARK INTER:                  -5.438
REMARK INTRA:                  -0.311
REMARK UNBOUND:                -0.112
REMARK SMILES [H]/N=C(/N)NCCc1ccc(O)cc1
REMARK SMILES IDX 7 1 8 2 11 3 10 4 13 5 9 6 14 7 12 8 6 10 5 11 3 12 2 13
REMARK SMILES IDX 4 14 1 16
REMARK H PARENT 12 9 5 15 4 17 4 18
ROOT
ATOM      1  C   UNL     1       1.639   2.346   9.614  1.00  0.00     0.057 C 
ENDROOT
BRANCH   1   2
ATOM      2  C   UNL     1       3.026   1.736   9.735  1.00  0.00    -0.046 A 
ATOM      3  C   UNL     1       5.610   0.656   9.941  1.00  0.00     0.115 A 
ATOM      4  C   UNL     1       4.507  -0.174  10.085  1.00  0.00     0.046 A 
ATOM      5  C   UNL     1       5.445   2.008   9.677  1.00  0.00     0.046 A 
ATOM      6  C   UNL     1       3.222   0.363   9.968  1.00  0.00     0.007 A 
ATOM      7  C   UNL     1       4.156   2.549   9.572  1.00  0.00     0.007 A 
BRANCH   3   8
ATOM      8  O   UNL     1       6.880   0.171  10.048  1.00  0.00    -0.508 OA
ATOM      9  H   UNL     1       7.280   0.524  10.855  1.00  0.00     0.293 HD
ENDBRANCH   3   8
ENDBRANCH   1   2
BRANCH   1  10
ATOM     10  C   UNL     1       0.855   1.850   8.395  1.00  0.00     0.120 C 
BRANCH  10  11
ATOM     11  N   UNL     1       1.005   2.708   7.226  1.00  0.00    -0.356 N 
ATOM     12  C   UNL     1       2.005   2.510   6.333  1.00  0.00     0.185 C 
ATOM     13  N   UNL     1       2.731   1.459   6.188  1.00  0.00    -0.270 NA
ATOM     14  N   UNL     1       2.223   3.567   5.537  1.00  0.00    -0.370 N 
ATOM     15  H   UNL     1       0.816   3.690   7.401  1.00  0.00     0.163 HD
ATOM     16  H   UNL     1       2.446   0.747   6.857  1.00  0.00     0.191 HD
ATOM     17  H   UNL     1       1.387   4.037   5.219  1.00  0.00     0.159 HD
ATOM     18  H   UNL     1       2.809   3.287   4.758  1.00  0.00     0.159 HD
ENDBRANCH  10  11
ENDBRANCH   1  10
TORSDOF 4
ENDMDL
MODEL 7
REMARK VINA RESULT:    -4.596      4.077      6.107
REMARK INTER + INTRA:          -5.649
REMARK INTER:                  -5.332
REMARK INTRA:                  -0.317
REMARK UNBOUND:                -0.112
REMARK SMILES [H]/N=C(/N)NCCc1ccc(O)cc1
REMARK SMILES IDX 7 1 8 2 11 3 10 4 13 5 9 6 14 7 12 8 6 10 5 11 3 12 2 13
REMARK SMILES IDX 4 14 1 16
REMARK H PARENT 12 9 5 15 4 17 4 18
ROOT
ATOM      1  C   UNL     1       5.339   4.871  -4.006  1.00  0.00     0.057 C 
ENDROOT
BRANCH   1   2
ATOM      2  C   UNL     1       5.498   6.215  -3.315  1.00  0.00    -0.046 A 
ATOM      3  C   UNL     1       5.768   8.723  -2.081  1.00  0.00     0.115 A 
ATOM      4  C   UNL     1       6.366   7.610  -1.508  1.00  0.00     0.046 A 
ATOM      5  C   UNL     1       5.056   8.610  -3.266  1.00  0.00     0.046 A 
ATOM      6  C   UNL     1       6.241   6.365  -2.131  1.00  0.00     0.007 A 
ATOM      7  C   UNL     1       4.922   7.359  -3.885  1.00  0.00     0.007 A 
BRANCH   3   8
ATOM      8  O   UNL     1       5.865   9.955  -1.505  1.00  0.00    -0.508 OA
ATOM      9  H   UNL     1       4.991  10.371  -1.511  1.00  0.00     0.293 HD
ENDBRANCH   3   8
ENDBRANCH   1   2
BRANCH   1  10
ATOM     10  C   UNL     1       6.185   4.730  -5.276  1.00  0.00     0.120 C 
BRANCH  10  11
ATOM     11  N   UNL     1       7.618   4.709  -5.012  1.00  0.00    -0.356 N 
ATOM     12  C   UNL     1       8.415   5.742  -5.381  1.00  0.00     0.185 C 
ATOM     13  N   UNL     1       8.058   6.933  -5.704  1.00  0.00    -0.270 NA
ATOM     14  N   UNL     1       9.719   5.425  -5.399  1.00  0.00    -0.370 N 
ATOM     15  H   UNL     1       8.055   3.803  -5.144  1.00  0.00     0.163 HD
ATOM     16  H   UNL     1       7.046   7.020  -5.640  1.00  0.00     0.191 HD
ATOM     17  H   UNL     1      10.023   4.839  -4.634  1.00  0.00     0.159 HD
ATOM     18  H   UNL     1      10.271   6.275  -5.456  1.00  0.00     0.159 HD
ENDBRANCH  10  11
ENDBRANCH   1  10
TORSDOF 4
ENDMDL
MODEL 8
REMARK VINA RESULT:    -4.566     14.236     16.173
REMARK INTER + INTRA:          -5.613
REMARK INTER:                  -5.446
REMARK INTRA:                  -0.166
REMARK UNBOUND:                -0.112
REMARK SMILES [H]/N=C(/N)NCCc1ccc(O)cc1
REMARK SMILES IDX 7 1 8 2 11 3 10 4 13 5 9 6 14 7 12 8 6 10 5 11 3 12 2 13
REMARK SMILES IDX 4 14 1 16
REMARK H PARENT 12 9 5 15 4 17 4 18
ROOT
ATOM      1  C   UNL     1       6.773  -0.900   9.424  1.00  0.00     0.057 C 
ENDROOT
BRANCH   1   2
ATOM      2  C   UNL     1       5.690   0.142   9.653  1.00  0.00    -0.046 A 
ATOM      3  C   UNL     1       3.651   2.026  10.076  1.00  0.00     0.115 A 
ATOM      4  C   UNL     1       4.936   2.461   9.784  1.00  0.00     0.046 A 
ATOM      5  C   UNL     1       3.363   0.671  10.141  1.00  0.00     0.046 A 
ATOM      6  C   UNL     1       5.946   1.521   9.560  1.00  0.00     0.007 A 
ATOM      7  C   UNL     1       4.378  -0.272   9.928  1.00  0.00     0.007 A 
BRANCH   3   8
ATOM      8  O   UNL     1       2.637   2.910  10.301  1.00  0.00    -0.508 OA
ATOM      9  H   UNL     1       2.325   3.249   9.449  1.00  0.00     0.293 HD
ENDBRANCH   3   8
ENDBRANCH   1   2
BRANCH   1  10
ATOM     10  C   UNL     1       6.986  -1.248   7.947  1.00  0.00     0.120 C 
BRANCH  10  11
ATOM     11  N   UNL     1       7.926  -0.359   7.277  1.00  0.00    -0.356 N 
ATOM     12  C   UNL     1       9.185  -0.763   6.978  1.00  0.00     0.185 C 
ATOM     13  N   UNL     1       9.635  -1.967   6.942  1.00  0.00    -0.270 NA
ATOM     14  N   UNL     1      10.017   0.252   6.701  1.00  0.00    -0.370 N 
ATOM     15  H   UNL     1       7.881   0.607   7.584  1.00  0.00     0.163 HD
ATOM     16  H   UNL     1       8.890  -2.622   7.170  1.00  0.00     0.191 HD
ATOM     17  H   UNL     1       9.612   0.993   6.148  1.00  0.00     0.159 HD
ATOM     18  H   UNL     1      10.861  -0.112   6.272  1.00  0.00     0.159 HD
ENDBRANCH  10  11
ENDBRANCH   1  10
TORSDOF 4
ENDMDL
MODEL 9
REMARK VINA RESULT:    -4.556     14.577     15.840
REMARK INTER + INTRA:          -5.601
REMARK INTER:                  -5.423
REMARK INTRA:                  -0.178
REMARK UNBOUND:                -0.112
REMARK SMILES [H]/N=C(/N)NCCc1ccc(O)cc1
REMARK SMILES IDX 7 1 8 2 11 3 10 4 13 5 9 6 14 7 12 8 6 10 5 11 3 12 2 13
REMARK SMILES IDX 4 14 1 16
REMARK H PARENT 12 9 5 15 4 17 4 18
ROOT
ATOM      1  C   UNL     1      -0.222   2.450   8.156  1.00  0.00     0.057 C 
ENDROOT
BRANCH   1   2
ATOM      2  C   UNL     1       1.158   2.448   8.795  1.00  0.00    -0.046 A 
ATOM      3  C   UNL     1       3.729   2.431   9.924  1.00  0.00     0.115 A 
ATOM      4  C   UNL     1       2.618   2.523  10.750  1.00  0.00     0.046 A 
ATOM      5  C   UNL     1       3.578   2.328   8.549  1.00  0.00     0.046 A 
ATOM      6  C   UNL     1       1.339   2.517  10.187  1.00  0.00     0.007 A 
ATOM      7  C   UNL     1       2.296   2.334   7.983  1.00  0.00     0.007 A 
BRANCH   3   8
ATOM      8  O   UNL     1       4.994   2.434  10.433  1.00  0.00    -0.508 OA
ATOM      9  H   UNL     1       5.053   1.754  11.121  1.00  0.00     0.293 HD
ENDBRANCH   3   8
ENDBRANCH   1   2
BRANCH   1  10
ATOM     10  C   UNL     1      -0.256   3.107   6.773  1.00  0.00     0.120 C 
BRANCH  10  11
ATOM     11  N   UNL     1      -0.653   4.508   6.810  1.00  0.00    -0.356 N 
ATOM     12  C   UNL     1      -0.285   5.370   5.830  1.00  0.00     0.185 C 
ATOM     13  N   UNL     1       0.158   5.082   4.659  1.00  0.00    -0.270 NA
ATOM     14  N   UNL     1      -0.412   6.658   6.181  1.00  0.00    -0.370 N 
ATOM     15  H   UNL     1      -0.630   4.925   7.735  1.00  0.00     0.163 HD
ATOM     16  H   UNL     1       0.195   4.072   4.541  1.00  0.00     0.191 HD
ATOM     17  H   UNL     1      -1.243   6.872   6.714  1.00  0.00     0.159 HD
ATOM     18  H   UNL     1      -0.344   7.240   5.353  1.00  0.00     0.159 HD
ENDBRANCH  10  11
ENDBRANCH   1  10
TORSDOF 4
ENDMDL
