MODEL 1
REMARK VINA RESULT:    -5.958      0.000      0.000
REMARK INTER + INTRA:          -9.440
REMARK INTER:                  -8.048
REMARK INTRA:                  -1.391
REMARK UNBOUND:                -1.391
REMARK SMILES O=S(=O)(NC1CCNCC1)c1cc(S(=O)(=O)c2ccccc2)ccc1C(F)(F)F
REMARK SMILES IDX 2 1 1 2 3 3 4 4 5 6 6 7 7 8 8 9 10 10 9 11 11 13 25 14 12 15
REMARK SMILES IDX 24 16 13 17 23 18 26 19 27 20 28 21 29 22 14 23 15 24 16 25
REMARK SMILES IDX 17 26 18 27 22 28 19 29 21 30 20 31
REMARK H PARENT 4 5 8 12
ROOT
ATOM      1  S   UNL     1      -1.497   3.785   7.518  1.00  0.00     0.241 S 
ATOM      2  O   UNL     1      -2.353   2.998   6.657  1.00  0.00    -0.207 OA
ATOM      3  O   UNL     1      -1.298   5.201   7.282  1.00  0.00    -0.207 OA
ENDROOT
BRANCH   1   4
ATOM      4  N   UNL     1      -2.001   3.543   9.110  1.00  0.00    -0.208 NA
ATOM      5  H   UNL     1      -1.244   3.614   9.791  1.00  0.00     0.141 HD
BRANCH   4   6
ATOM      6  C   UNL     1      -3.106   2.595   9.419  1.00  0.00     0.072 C 
ATOM      7  C   UNL     1      -4.013   3.168  10.521  1.00  0.00     0.035 C 
ATOM      8  C   UNL     1      -3.316   3.176  11.882  1.00  0.00     0.082 C 
ATOM      9  N   UNL     1      -2.815   1.850  12.249  1.00  0.00    -0.317 NA
ATOM     10  C   UNL     1      -2.612   1.227   9.866  1.00  0.00     0.035 C 
ATOM     11  C   UNL     1      -1.928   1.296  11.228  1.00  0.00     0.082 C 
ATOM     12  H   UNL     1      -3.604   1.216  12.383  1.00  0.00     0.122 HD
ENDBRANCH   4   6
ENDBRANCH   1   4
BRANCH   1  13
ATOM     13  C   UNL     1       0.140   3.050   7.490  1.00  0.00     0.096 A 
ATOM     14  C   UNL     1       0.938   2.991   6.331  1.00  0.00     0.076 A 
ATOM     15  C   UNL     1       0.629   2.558   8.713  1.00  0.00     0.043 A 
ATOM     16  C   UNL     1       2.224   2.406   6.442  1.00  0.00     0.016 A 
ATOM     17  C   UNL     1       1.935   2.076   8.805  1.00  0.00     0.073 A 
ATOM     18  C   UNL     1       2.729   1.971   7.668  1.00  0.00     0.021 A 
BRANCH  14  19
ATOM     19  C   UNL     1       0.603   3.581   4.978  1.00  0.00     0.417 C 
ATOM     20  F   UNL     1       0.476   4.926   4.918  1.00  0.00    -0.166 F 
ATOM     21  F   UNL     1       1.599   3.308   4.083  1.00  0.00    -0.166 F 
ATOM     22  F   UNL     1      -0.526   3.050   4.438  1.00  0.00    -0.166 F 
ENDBRANCH  14  19
BRANCH  17  23
ATOM     23  S   UNL     1       2.640   1.834  10.423  1.00  0.00     0.206 S 
ATOM     24  O   UNL     1       4.021   2.289  10.359  1.00  0.00    -0.219 OA
ATOM     25  O   UNL     1       1.716   2.449  11.356  1.00  0.00    -0.219 OA
BRANCH  23  26
ATOM     26  C   UNL     1       2.670   0.092  10.741  1.00  0.00     0.072 A 
ATOM     27  C   UNL     1       3.792  -0.657  10.374  1.00  0.00     0.021 A 
ATOM     28  C   UNL     1       1.598  -0.503  11.413  1.00  0.00     0.021 A 
ATOM     29  C   UNL     1       3.822  -2.023  10.645  1.00  0.00     0.001 A 
ATOM     30  C   UNL     1       1.635  -1.871  11.680  1.00  0.00     0.001 A 
ATOM     31  C   UNL     1       2.741  -2.630  11.290  1.00  0.00     0.000 A 
ENDBRANCH  23  26
ENDBRANCH  17  23
ENDBRANCH   1  13
TORSDOF 6
ENDMDL
MODEL 2
REMARK VINA RESULT:    -5.904      1.248      1.826
REMARK INTER + INTRA:          -9.366
REMARK INTER:                  -8.106
REMARK INTRA:                  -1.261
REMARK UNBOUND:                -1.391
REMARK SMILES O=S(=O)(NC1CCNCC1)c1cc(S(=O)(=O)c2ccccc2)ccc1C(F)(F)F
REMARK SMILES IDX 2 1 1 2 3 3 4 4 5 6 6 7 7 8 8 9 10 10 9 11 11 13 25 14 12 15
REMARK SMILES IDX 24 16 13 17 23 18 26 19 27 20 28 21 29 22 14 23 15 24 16 25
REMARK SMILES IDX 17 26 18 27 22 28 19 29 21 30 20 31
REMARK H PARENT 4 5 8 12
ROOT
ATOM      1  S   UNL     1      -1.521   3.813   7.464  1.00  0.00     0.241 S 
ATOM      2  O   UNL     1      -2.461   3.087   6.636  1.00  0.00    -0.207 OA
ATOM      3  O   UNL     1      -1.259   5.220   7.239  1.00  0.00    -0.207 OA
ENDROOT
BRANCH   1   4
ATOM      4  N   UNL     1      -1.957   3.571   9.075  1.00  0.00    -0.208 NA
ATOM      5  H   UNL     1      -1.161   3.562   9.715  1.00  0.00     0.141 HD
BRANCH   4   6
ATOM      6  C   UNL     1      -3.118   2.707   9.425  1.00  0.00     0.072 C 
ATOM      7  C   UNL     1      -3.899   3.308  10.606  1.00  0.00     0.035 C 
ATOM      8  C   UNL     1      -3.118   3.202  11.915  1.00  0.00     0.082 C 
ATOM      9  N   UNL     1      -2.711   1.824  12.201  1.00  0.00    -0.317 NA
ATOM     10  C   UNL     1      -2.717   1.285   9.789  1.00  0.00     0.035 C 
ATOM     11  C   UNL     1      -1.944   1.240  11.103  1.00  0.00     0.082 C 
ATOM     12  H   UNL     1      -3.542   1.255  12.365  1.00  0.00     0.122 HD
ENDBRANCH   4   6
ENDBRANCH   1   4
BRANCH   1  13
ATOM     13  C   UNL     1       0.071   2.993   7.342  1.00  0.00     0.096 A 
ATOM     14  C   UNL     1       0.825   2.949   6.153  1.00  0.00     0.076 A 
ATOM     15  C   UNL     1       0.573   2.417   8.522  1.00  0.00     0.043 A 
ATOM     16  C   UNL     1       2.079   2.291   6.190  1.00  0.00     0.016 A 
ATOM     17  C   UNL     1       1.853   1.861   8.543  1.00  0.00     0.073 A 
ATOM     18  C   UNL     1       2.601   1.770   7.374  1.00  0.00     0.021 A 
BRANCH  14  19
ATOM     19  C   UNL     1       0.477   3.621   4.842  1.00  0.00     0.417 C 
ATOM     20  F   UNL     1       0.453   4.974   4.843  1.00  0.00    -0.166 F 
ATOM     21  F   UNL     1       1.409   3.313   3.890  1.00  0.00    -0.166 F 
ATOM     22  F   UNL     1      -0.712   3.202   4.336  1.00  0.00    -0.166 F 
ENDBRANCH  14  19
BRANCH  17  23
ATOM     23  S   UNL     1       2.597   1.504  10.121  1.00  0.00     0.206 S 
ATOM     24  O   UNL     1       2.767   2.774  10.811  1.00  0.00    -0.219 OA
ATOM     25  O   UNL     1       1.788   0.457  10.716  1.00  0.00    -0.219 OA
BRANCH  23  26
ATOM     26  C   UNL     1       4.214   0.847   9.816  1.00  0.00     0.072 A 
ATOM     27  C   UNL     1       5.291   1.721   9.639  1.00  0.00     0.021 A 
ATOM     28  C   UNL     1       4.405  -0.538   9.817  1.00  0.00     0.021 A 
ATOM     29  C   UNL     1       6.565   1.201   9.421  1.00  0.00     0.001 A 
ATOM     30  C   UNL     1       5.683  -1.050   9.597  1.00  0.00     0.001 A 
ATOM     31  C   UNL     1       6.758  -0.183   9.392  1.00  0.00     0.000 A 
ENDBRANCH  23  26
ENDBRANCH  17  23
ENDBRANCH   1  13
TORSDOF 6
ENDMDL
MODEL 3
REMARK VINA RESULT:    -5.645      4.152      7.372
REMARK INTER + INTRA:          -9.016
REMARK INTER:                  -7.439
REMARK INTRA:                  -1.577
REMARK UNBOUND:                -1.391
REMARK SMILES O=S(=O)(NC1CCNCC1)c1cc(S(=O)(=O)c2ccccc2)ccc1C(F)(F)F
REMARK SMILES IDX 2 1 1 2 3 3 4 4 5 6 6 7 7 8 8 9 10 10 9 11 11 13 25 14 12 15
REMARK SMILES IDX 24 16 13 17 23 18 26 19 27 20 28 21 29 22 14 23 15 24 16 25
REMARK SMILES IDX 17 26 18 27 22 28 19 29 21 30 20 31
REMARK H PARENT 4 5 8 12
ROOT
ATOM      1  S   UNL     1       3.477   0.833   8.917  1.00  0.00     0.241 S 
ATOM      2  O   UNL     1       3.254  -0.246   9.855  1.00  0.00    -0.207 OA
ATOM      3  O   UNL     1       4.458   1.865   9.186  1.00  0.00    -0.207 OA
ENDROOT
BRANCH   1   4
ATOM      4  N   UNL     1       3.776   0.150   7.404  1.00  0.00    -0.208 NA
ATOM      5  H   UNL     1       3.896   0.841   6.663  1.00  0.00     0.141 HD
BRANCH   4   6
ATOM      6  C   UNL     1       3.160  -1.151   7.026  1.00  0.00     0.072 C 
ATOM      7  C   UNL     1       4.185  -2.291   7.163  1.00  0.00     0.035 C 
ATOM      8  C   UNL     1       5.265  -2.214   6.084  1.00  0.00     0.082 C 
ATOM      9  N   UNL     1       4.693  -2.180   4.736  1.00  0.00    -0.317 NA
ATOM     10  C   UNL     1       2.614  -1.165   5.605  1.00  0.00     0.035 C 
ATOM     11  C   UNL     1       3.736  -1.088   4.575  1.00  0.00     0.082 C 
ATOM     12  H   UNL     1       4.222  -3.065   4.547  1.00  0.00     0.122 HD
ENDBRANCH   4   6
ENDBRANCH   1   4
BRANCH   1  13
ATOM     13  C   UNL     1       1.918   1.690   8.680  1.00  0.00     0.096 A 
ATOM     14  C   UNL     1       1.064   2.043   9.742  1.00  0.00     0.076 A 
ATOM     15  C   UNL     1       1.591   2.045   7.359  1.00  0.00     0.043 A 
ATOM     16  C   UNL     1      -0.129   2.740   9.429  1.00  0.00     0.016 A 
ATOM     17  C   UNL     1       0.455   2.813   7.099  1.00  0.00     0.073 A 
ATOM     18  C   UNL     1      -0.424   3.141   8.125  1.00  0.00     0.021 A 
BRANCH  14  19
ATOM     19  C   UNL     1       1.333   1.839  11.218  1.00  0.00     0.417 C 
ATOM     20  F   UNL     1       2.530   2.269  11.681  1.00  0.00    -0.166 F 
ATOM     21  F   UNL     1       0.425   2.536  11.966  1.00  0.00    -0.166 F 
ATOM     22  F   UNL     1       1.200   0.542  11.602  1.00  0.00    -0.166 F 
ENDBRANCH  14  19
BRANCH  17  23
ATOM     23  S   UNL     1       0.289   3.565   5.493  1.00  0.00     0.206 S 
ATOM     24  O   UNL     1      -1.088   4.021   5.376  1.00  0.00    -0.219 OA
ATOM     25  O   UNL     1       1.380   4.515   5.383  1.00  0.00    -0.219 OA
BRANCH  23  26
ATOM     26  C   UNL     1       0.532   2.299   4.279  1.00  0.00     0.072 A 
ATOM     27  C   UNL     1       1.591   2.407   3.372  1.00  0.00     0.021 A 
ATOM     28  C   UNL     1      -0.299   1.175   4.281  1.00  0.00     0.021 A 
ATOM     29  C   UNL     1       1.793   1.399   2.433  1.00  0.00     0.001 A 
ATOM     30  C   UNL     1      -0.091   0.171   3.337  1.00  0.00     0.001 A 
ATOM     31  C   UNL     1       0.948   0.286   2.411  1.00  0.00     0.000 A 
ENDBRANCH  23  26
ENDBRANCH  17  23
ENDBRANCH   1  13
TORSDOF 6
ENDMDL
MODEL 4
REMARK VINA RESULT:    -5.596      3.090      5.034
REMARK INTER + INTRA:          -8.950
REMARK INTER:                  -7.873
REMARK INTRA:                  -1.077
REMARK UNBOUND:                -1.391
REMARK SMILES O=S(=O)(NC1CCNCC1)c1cc(S(=O)(=O)c2ccccc2)ccc1C(F)(F)F
REMARK SMILES IDX 2 1 1 2 3 3 4 4 5 6 6 7 7 8 8 9 10 10 9 11 11 13 25 14 12 15
REMARK SMILES IDX 24 16 13 17 23 18 26 19 27 20 28 21 29 22 14 23 15 24 16 25
REMARK SMILES IDX 17 26 18 27 22 28 19 29 21 30 20 31
REMARK H PARENT 4 5 8 12
ROOT
ATOM      1  S   UNL     1      -0.858   2.756   7.753  1.00  0.00     0.241 S 
ATOM      2  O   UNL     1      -1.394   4.098   7.822  1.00  0.00    -0.207 OA
ATOM      3  O   UNL     1      -1.735   1.604   7.692  1.00  0.00    -0.207 OA
ENDROOT
BRANCH   1   4
ATOM      4  N   UNL     1       0.236   2.701   6.470  1.00  0.00    -0.208 NA
ATOM      5  H   UNL     1       0.674   3.601   6.271  1.00  0.00     0.141 HD
BRANCH   4   6
ATOM      6  C   UNL     1       0.007   1.788   5.317  1.00  0.00     0.072 C 
ATOM      7  C   UNL     1       0.650   0.416   5.583  1.00  0.00     0.035 C 
ATOM      8  C   UNL     1       2.175   0.485   5.534  1.00  0.00     0.082 C 
ATOM      9  N   UNL     1       2.659   1.058   4.275  1.00  0.00    -0.317 NA
ATOM     10  C   UNL     1       0.557   2.330   4.006  1.00  0.00     0.035 C 
ATOM     11  C   UNL     1       2.081   2.375   4.015  1.00  0.00     0.082 C 
ATOM     12  H   UNL     1       2.418   0.432   3.506  1.00  0.00     0.122 HD
ENDBRANCH   4   6
ENDBRANCH   1   4
BRANCH   1  13
ATOM     13  C   UNL     1       0.183   2.502   9.192  1.00  0.00     0.096 A 
ATOM     14  C   UNL     1      -0.324   2.395  10.501  1.00  0.00     0.076 A 
ATOM     15  C   UNL     1       1.563   2.366   8.953  1.00  0.00     0.043 A 
ATOM     16  C   UNL     1       0.599   2.171  11.553  1.00  0.00     0.016 A 
ATOM     17  C   UNL     1       2.429   2.051  10.001  1.00  0.00     0.073 A 
ATOM     18  C   UNL     1       1.959   1.980  11.307  1.00  0.00     0.021 A 
BRANCH  14  19
ATOM     19  C   UNL     1      -1.784   2.400  10.903  1.00  0.00     0.417 C 
ATOM     20  F   UNL     1      -2.537   3.421  10.435  1.00  0.00    -0.166 F 
ATOM     21  F   UNL     1      -2.411   1.285  10.421  1.00  0.00    -0.166 F 
ATOM     22  F   UNL     1      -1.958   2.362  12.250  1.00  0.00    -0.166 F 
ENDBRANCH  14  19
BRANCH  17  23
ATOM     23  S   UNL     1       4.078   1.506   9.604  1.00  0.00     0.206 S 
ATOM     24  O   UNL     1       4.166   1.433   8.153  1.00  0.00    -0.219 OA
ATOM     25  O   UNL     1       4.974   2.375  10.343  1.00  0.00    -0.219 OA
BRANCH  23  26
ATOM     26  C   UNL     1       4.264  -0.141  10.229  1.00  0.00     0.072 A 
ATOM     27  C   UNL     1       3.136  -0.953  10.380  1.00  0.00     0.021 A 
ATOM     28  C   UNL     1       5.544  -0.631  10.506  1.00  0.00     0.021 A 
ATOM     29  C   UNL     1       3.288  -2.255  10.851  1.00  0.00     0.001 A 
ATOM     30  C   UNL     1       5.687  -1.935  10.979  1.00  0.00     0.001 A 
ATOM     31  C   UNL     1       4.561  -2.742  11.157  1.00  0.00     0.000 A 
ENDBRANCH  23  26
ENDBRANCH  17  23
ENDBRANCH   1  13
TORSDOF 6
ENDMDL
MODEL 5
REMARK VINA RESULT:    -5.571      4.484      6.633
REMARK INTER + INTRA:          -8.917
REMARK INTER:                  -8.249
REMARK INTRA:                  -0.668
REMARK UNBOUND:                -1.391
REMARK SMILES O=S(=O)(NC1CCNCC1)c1cc(S(=O)(=O)c2ccccc2)ccc1C(F)(F)F
REMARK SMILES IDX 2 1 1 2 3 3 4 4 5 6 6 7 7 8 8 9 10 10 9 11 11 13 25 14 12 15
REMARK SMILES IDX 24 16 13 17 23 18 26 19 27 20 28 21 29 22 14 23 15 24 16 25
REMARK SMILES IDX 17 26 18 27 22 28 19 29 21 30 20 31
REMARK H PARENT 4 5 8 12
ROOT
ATOM      1  S   UNL     1       2.164  -0.057   8.922  1.00  0.00     0.241 S 
ATOM      2  O   UNL     1       1.630   0.992   9.764  1.00  0.00    -0.207 OA
ATOM      3  O   UNL     1       1.532  -1.360   8.862  1.00  0.00    -0.207 OA
ENDROOT
BRANCH   1   4
ATOM      4  N   UNL     1       2.327   0.564   7.362  1.00  0.00    -0.208 NA
ATOM      5  H   UNL     1       3.138   1.173   7.250  1.00  0.00     0.141 HD
BRANCH   4   6
ATOM      6  C   UNL     1       1.125   0.878   6.542  1.00  0.00     0.072 C 
ATOM      7  C   UNL     1       1.345   0.446   5.081  1.00  0.00     0.035 C 
ATOM      8  C   UNL     1       2.359   1.342   4.372  1.00  0.00     0.082 C 
ATOM      9  N   UNL     1       1.993   2.758   4.453  1.00  0.00    -0.317 NA
ATOM     10  C   UNL     1       0.759   2.354   6.556  1.00  0.00     0.035 C 
ATOM     11  C   UNL     1       1.805   3.197   5.834  1.00  0.00     0.082 C 
ATOM     12  H   UNL     1       1.127   2.912   3.935  1.00  0.00     0.122 HD
ENDBRANCH   4   6
ENDBRANCH   1   4
BRANCH   1  13
ATOM     13  C   UNL     1       3.860  -0.359   9.423  1.00  0.00     0.096 A 
ATOM     14  C   UNL     1       4.803   0.670   9.609  1.00  0.00     0.076 A 
ATOM     15  C   UNL     1       4.213  -1.697   9.673  1.00  0.00     0.043 A 
ATOM     16  C   UNL     1       6.106   0.307  10.030  1.00  0.00     0.016 A 
ATOM     17  C   UNL     1       5.476  -2.008  10.178  1.00  0.00     0.073 A 
ATOM     18  C   UNL     1       6.438  -1.015  10.333  1.00  0.00     0.021 A 
BRANCH  14  19
ATOM     19  C   UNL     1       4.544   2.158   9.497  1.00  0.00     0.417 C 
ATOM     20  F   UNL     1       3.751   2.707  10.445  1.00  0.00    -0.166 F 
ATOM     21  F   UNL     1       5.716   2.852   9.610  1.00  0.00    -0.166 F 
ATOM     22  F   UNL     1       4.027   2.512   8.291  1.00  0.00    -0.166 F 
ENDBRANCH  14  19
BRANCH  17  23
ATOM     23  S   UNL     1       5.747  -3.637  10.845  1.00  0.00     0.206 S 
ATOM     24  O   UNL     1       5.371  -3.591  12.250  1.00  0.00    -0.219 OA
ATOM     25  O   UNL     1       5.076  -4.554   9.943  1.00  0.00    -0.219 OA
BRANCH  23  26
ATOM     26  C   UNL     1       7.487  -3.965  10.773  1.00  0.00     0.072 A 
ATOM     27  C   UNL     1       8.114  -4.088   9.530  1.00  0.00     0.021 A 
ATOM     28  C   UNL     1       8.223  -4.033  11.960  1.00  0.00     0.021 A 
ATOM     29  C   UNL     1       9.486  -4.324   9.477  1.00  0.00     0.001 A 
ATOM     30  C   UNL     1       9.595  -4.271  11.898  1.00  0.00     0.001 A 
ATOM     31  C   UNL     1      10.224  -4.423  10.660  1.00  0.00     0.000 A 
ENDBRANCH  23  26
ENDBRANCH  17  23
ENDBRANCH   1  13
TORSDOF 6
ENDMDL
MODEL 6
REMARK VINA RESULT:    -5.556      3.645      7.286
REMARK INTER + INTRA:          -8.896
REMARK INTER:                  -7.224
REMARK INTRA:                  -1.672
REMARK UNBOUND:                -1.391
REMARK SMILES O=S(=O)(NC1CCNCC1)c1cc(S(=O)(=O)c2ccccc2)ccc1C(F)(F)F
REMARK SMILES IDX 2 1 1 2 3 3 4 4 5 6 6 7 7 8 8 9 10 10 9 11 11 13 25 14 12 15
REMARK SMILES IDX 24 16 13 17 23 18 26 19 27 20 28 21 29 22 14 23 15 24 16 25
REMARK SMILES IDX 17 26 18 27 22 28 19 29 21 30 20 31
REMARK H PARENT 4 5 8 12
ROOT
ATOM      1  S   UNL     1       2.120   1.243   7.673  1.00  0.00     0.241 S 
ATOM      2  O   UNL     1       2.490  -0.111   8.025  1.00  0.00    -0.207 OA
ATOM      3  O   UNL     1       3.082   2.324   7.748  1.00  0.00    -0.207 OA
ENDROOT
BRANCH   1   4
ATOM      4  N   UNL     1       1.430   1.207   6.134  1.00  0.00    -0.208 NA
ATOM      5  H   UNL     1       1.048   0.295   5.881  1.00  0.00     0.141 HD
BRANCH   4   6
ATOM      6  C   UNL     1       1.991   2.037   5.032  1.00  0.00     0.072 C 
ATOM      7  C   UNL     1       1.012   3.164   4.657  1.00  0.00     0.035 C 
ATOM      8  C   UNL     1      -0.227   2.624   3.944  1.00  0.00     0.082 C 
ATOM      9  N   UNL     1       0.122   1.818   2.772  1.00  0.00    -0.317 NA
ATOM     10  C   UNL     1       2.303   1.235   3.778  1.00  0.00     0.035 C 
ATOM     11  C   UNL     1       1.030   0.724   3.110  1.00  0.00     0.082 C 
ATOM     12  H   UNL     1       0.565   2.415   2.073  1.00  0.00     0.122 HD
ENDBRANCH   4   6
ENDBRANCH   1   4
BRANCH   1  13
ATOM     13  C   UNL     1       0.751   1.733   8.725  1.00  0.00     0.096 A 
ATOM     14  C   UNL     1       0.880   1.936  10.112  1.00  0.00     0.076 A 
ATOM     15  C   UNL     1      -0.483   1.954   8.088  1.00  0.00     0.043 A 
ATOM     16  C   UNL     1      -0.271   2.345  10.831  1.00  0.00     0.016 A 
ATOM     17  C   UNL     1      -1.569   2.448   8.812  1.00  0.00     0.073 A 
ATOM     18  C   UNL     1      -1.479   2.619  10.189  1.00  0.00     0.021 A 
BRANCH  14  19
ATOM     19  C   UNL     1       2.159   1.854  10.918  1.00  0.00     0.417 C 
ATOM     20  F   UNL     1       3.091   2.804  10.672  1.00  0.00    -0.166 F 
ATOM     21  F   UNL     1       1.889   1.999  12.250  1.00  0.00    -0.166 F 
ATOM     22  F   UNL     1       2.778   0.650  10.801  1.00  0.00    -0.166 F 
ENDBRANCH  14  19
BRANCH  17  23
ATOM     23  S   UNL     1      -2.971   3.081   7.914  1.00  0.00     0.206 S 
ATOM     24  O   UNL     1      -3.529   1.971   7.156  1.00  0.00    -0.219 OA
ATOM     25  O   UNL     1      -3.788   3.778   8.889  1.00  0.00    -0.219 OA
BRANCH  23  26
ATOM     26  C   UNL     1      -2.369   4.270   6.746  1.00  0.00     0.072 A 
ATOM     27  C   UNL     1      -3.064   4.475   5.551  1.00  0.00     0.021 A 
ATOM     28  C   UNL     1      -1.242   5.034   7.062  1.00  0.00     0.021 A 
ATOM     29  C   UNL     1      -2.601   5.426   4.645  1.00  0.00     0.001 A 
ATOM     30  C   UNL     1      -0.783   5.983   6.149  1.00  0.00     0.001 A 
ATOM     31  C   UNL     1      -1.457   6.173   4.941  1.00  0.00     0.000 A 
ENDBRANCH  23  26
ENDBRANCH  17  23
ENDBRANCH   1  13
TORSDOF 6
ENDMDL
MODEL 7
REMARK VINA RESULT:    -5.544      6.691      9.569
REMARK INTER + INTRA:          -8.880
REMARK INTER:                  -7.984
REMARK INTRA:                  -0.895
REMARK UNBOUND:                -1.391
REMARK SMILES O=S(=O)(NC1CCNCC1)c1cc(S(=O)(=O)c2ccccc2)ccc1C(F)(F)F
REMARK SMILES IDX 2 1 1 2 3 3 4 4 5 6 6 7 7 8 8 9 10 10 9 11 11 13 25 14 12 15
REMARK SMILES IDX 24 16 13 17 23 18 26 19 27 20 28 21 29 22 14 23 15 24 16 25
REMARK SMILES IDX 17 26 18 27 22 28 19 29 21 30 20 31
REMARK H PARENT 4 5 8 12
ROOT
ATOM      1  S   UNL     1       6.851  -3.865   6.041  1.00  0.00     0.241 S 
ATOM      2  O   UNL     1       6.946  -3.825   4.598  1.00  0.00    -0.207 OA
ATOM      3  O   UNL     1       6.543  -5.100   6.735  1.00  0.00    -0.207 OA
ENDROOT
BRANCH   1   4
ATOM      4  N   UNL     1       8.268  -3.202   6.671  1.00  0.00    -0.208 NA
ATOM      5  H   UNL     1       8.510  -2.298   6.264  1.00  0.00     0.141 HD
BRANCH   4   6
ATOM      6  C   UNL     1       9.394  -4.080   7.092  1.00  0.00     0.072 C 
ATOM      7  C   UNL     1      10.506  -3.248   7.755  1.00  0.00     0.035 C 
ATOM      8  C   UNL     1      11.246  -2.379   6.739  1.00  0.00     0.082 C 
ATOM      9  N   UNL     1      11.774  -3.168   5.623  1.00  0.00    -0.317 NA
ATOM     10  C   UNL     1      10.004  -4.865   5.940  1.00  0.00     0.035 C 
ATOM     11  C   UNL     1      10.730  -3.947   4.961  1.00  0.00     0.082 C 
ATOM     12  H   UNL     1      12.493  -3.804   5.971  1.00  0.00     0.122 HD
ENDBRANCH   4   6
ENDBRANCH   1   4
BRANCH   1  13
ATOM     13  C   UNL     1       5.590  -2.693   6.545  1.00  0.00     0.096 A 
ATOM     14  C   UNL     1       4.320  -2.620   5.941  1.00  0.00     0.076 A 
ATOM     15  C   UNL     1       5.909  -1.853   7.627  1.00  0.00     0.043 A 
ATOM     16  C   UNL     1       3.401  -1.667   6.444  1.00  0.00     0.016 A 
ATOM     17  C   UNL     1       4.946  -0.993   8.157  1.00  0.00     0.073 A 
ATOM     18  C   UNL     1       3.699  -0.874   7.553  1.00  0.00     0.021 A 
BRANCH  14  19
ATOM     19  C   UNL     1       3.788  -3.530   4.854  1.00  0.00     0.417 C 
ATOM     20  F   UNL     1       4.381  -3.436   3.642  1.00  0.00    -0.166 F 
ATOM     21  F   UNL     1       3.966  -4.839   5.204  1.00  0.00    -0.166 F 
ATOM     22  F   UNL     1       2.452  -3.386   4.655  1.00  0.00    -0.166 F 
ENDBRANCH  14  19
BRANCH  17  23
ATOM     23  S   UNL     1       5.255  -0.247   9.745  1.00  0.00     0.206 S 
ATOM     24  O   UNL     1       5.369  -1.331  10.710  1.00  0.00    -0.219 OA
ATOM     25  O   UNL     1       6.361   0.669   9.547  1.00  0.00    -0.219 OA
BRANCH  23  26
ATOM     26  C   UNL     1       3.823   0.701  10.180  1.00  0.00     0.072 A 
ATOM     27  C   UNL     1       2.722   0.061  10.758  1.00  0.00     0.021 A 
ATOM     28  C   UNL     1       3.835   2.087   9.999  1.00  0.00     0.021 A 
ATOM     29  C   UNL     1       1.607   0.813  11.120  1.00  0.00     0.001 A 
ATOM     30  C   UNL     1       2.714   2.832  10.362  1.00  0.00     0.001 A 
ATOM     31  C   UNL     1       1.600   2.195  10.914  1.00  0.00     0.000 A 
ENDBRANCH  23  26
ENDBRANCH  17  23
ENDBRANCH   1  13
TORSDOF 6
ENDMDL
MODEL 8
REMARK VINA RESULT:    -5.469      4.110      6.866
REMARK INTER + INTRA:          -8.779
REMARK INTER:                  -7.450
REMARK INTRA:                  -1.329
REMARK UNBOUND:                -1.391
REMARK SMILES O=S(=O)(NC1CCNCC1)c1cc(S(=O)(=O)c2ccccc2)ccc1C(F)(F)F
REMARK SMILES IDX 2 1 1 2 3 3 4 4 5 6 6 7 7 8 8 9 10 10 9 11 11 13 25 14 12 15
REMARK SMILES IDX 24 16 13 17 23 18 26 19 27 20 28 21 29 22 14 23 15 24 16 25
REMARK SMILES IDX 17 26 18 27 22 28 19 29 21 30 20 31
REMARK H PARENT 4 5 8 12
ROOT
ATOM      1  S   UNL     1       4.080  -2.107   9.314  1.00  0.00     0.241 S 
ATOM      2  O   UNL     1       4.869  -2.563  10.439  1.00  0.00    -0.207 OA
ATOM      3  O   UNL     1       4.497  -2.376   7.953  1.00  0.00    -0.207 OA
ENDROOT
BRANCH   1   4
ATOM      4  N   UNL     1       2.499  -2.649   9.538  1.00  0.00    -0.208 NA
ATOM      5  H   UNL     1       1.801  -2.071   9.068  1.00  0.00     0.141 HD
BRANCH   4   6
ATOM      6  C   UNL     1       2.094  -3.299  10.815  1.00  0.00     0.072 C 
ATOM      7  C   UNL     1       0.988  -4.338  10.561  1.00  0.00     0.035 C 
ATOM      8  C   UNL     1      -0.340  -3.676  10.198  1.00  0.00     0.082 C 
ATOM      9  N   UNL     1      -0.758  -2.697  11.204  1.00  0.00    -0.317 NA
ATOM     10  C   UNL     1       1.594  -2.311  11.857  1.00  0.00     0.035 C 
ATOM     11  C   UNL     1       0.267  -1.683  11.442  1.00  0.00     0.082 C 
ATOM     12  H   UNL     1      -0.958  -3.180  12.081  1.00  0.00     0.122 HD
ENDBRANCH   4   6
ENDBRANCH   1   4
BRANCH   1  13
ATOM     13  C   UNL     1       3.924  -0.324   9.436  1.00  0.00     0.096 A 
ATOM     14  C   UNL     1       5.031   0.544   9.510  1.00  0.00     0.076 A 
ATOM     15  C   UNL     1       2.617   0.196   9.410  1.00  0.00     0.043 A 
ATOM     16  C   UNL     1       4.778   1.936   9.578  1.00  0.00     0.016 A 
ATOM     17  C   UNL     1       2.410   1.575   9.383  1.00  0.00     0.073 A 
ATOM     18  C   UNL     1       3.483   2.452   9.495  1.00  0.00     0.021 A 
BRANCH  14  19
ATOM     19  C   UNL     1       6.490   0.148   9.427  1.00  0.00     0.417 C 
ATOM     20  F   UNL     1       6.862  -0.570   8.343  1.00  0.00    -0.166 F 
ATOM     21  F   UNL     1       7.280   1.262   9.368  1.00  0.00    -0.166 F 
ATOM     22  F   UNL     1       6.911  -0.538  10.523  1.00  0.00    -0.166 F 
ENDBRANCH  14  19
BRANCH  17  23
ATOM     23  S   UNL     1       0.790   2.182   8.958  1.00  0.00     0.206 S 
ATOM     24  O   UNL     1      -0.122   1.051   9.031  1.00  0.00    -0.219 OA
ATOM     25  O   UNL     1       0.570   3.348   9.792  1.00  0.00    -0.219 OA
BRANCH  23  26
ATOM     26  C   UNL     1       0.842   2.713   7.268  1.00  0.00     0.072 A 
ATOM     27  C   UNL     1      -0.102   3.635   6.806  1.00  0.00     0.021 A 
ATOM     28  C   UNL     1       1.864   2.251   6.434  1.00  0.00     0.021 A 
ATOM     29  C   UNL     1      -0.045   4.066   5.483  1.00  0.00     0.001 A 
ATOM     30  C   UNL     1       1.913   2.686   5.110  1.00  0.00     0.001 A 
ATOM     31  C   UNL     1       0.957   3.586   4.635  1.00  0.00     0.000 A 
ENDBRANCH  23  26
ENDBRANCH  17  23
ENDBRANCH   1  13
TORSDOF 6
ENDMDL
MODEL 9
REMARK VINA RESULT:    -2.804      7.878     11.186
REMARK INTER + INTRA:          -5.179
REMARK INTER:                  -4.418
REMARK INTRA:                  -0.761
REMARK UNBOUND:                -1.391
REMARK SMILES O=S(=O)(NC1CCNCC1)c1cc(S(=O)(=O)c2ccccc2)ccc1C(F)(F)F
REMARK SMILES IDX 2 1 1 2 3 3 4 4 5 6 6 7 7 8 8 9 10 10 9 11 11 13 25 14 12 15
REMARK SMILES IDX 24 16 13 17 23 18 26 19 27 20 28 21 29 22 14 23 15 24 16 25
REMARK SMILES IDX 17 26 18 27 22 28 19 29 21 30 20 31
REMARK H PARENT 4 5 8 12
ROOT
ATOM      1  S   UNL     1       8.046  -5.395   8.427  1.00  0.00     0.241 S 
ATOM      2  O   UNL     1       6.908  -5.478   7.536  1.00  0.00    -0.207 OA
ATOM      3  O   UNL     1       8.512  -6.558   9.154  1.00  0.00    -0.207 OA
ENDROOT
BRANCH   1   4
ATOM      4  N   UNL     1       9.328  -4.714   7.568  1.00  0.00    -0.208 NA
ATOM      5  H   UNL     1      10.210  -4.721   8.081  1.00  0.00     0.141 HD
BRANCH   4   6
ATOM      6  C   UNL     1       9.095  -3.579   6.633  1.00  0.00     0.072 C 
ATOM      7  C   UNL     1       9.285  -4.037   5.176  1.00  0.00     0.035 C 
ATOM      8  C   UNL     1      10.753  -4.314   4.856  1.00  0.00     0.082 C 
ATOM      9  N   UNL     1      11.609  -3.166   5.163  1.00  0.00    -0.317 NA
ATOM     10  C   UNL     1      10.016  -2.395   6.888  1.00  0.00     0.035 C 
ATOM     11  C   UNL     1      11.465  -2.730   6.550  1.00  0.00     0.082 C 
ATOM     12  H   UNL     1      11.366  -2.391   4.544  1.00  0.00     0.122 HD
ENDBRANCH   4   6
ENDBRANCH   1   4
BRANCH   1  13
ATOM     13  C   UNL     1       7.682  -4.154   9.672  1.00  0.00     0.096 A 
ATOM     14  C   UNL     1       8.448  -3.987  10.841  1.00  0.00     0.076 A 
ATOM     15  C   UNL     1       6.596  -3.300   9.409  1.00  0.00     0.043 A 
ATOM     16  C   UNL     1       8.074  -2.955  11.737  1.00  0.00     0.016 A 
ATOM     17  C   UNL     1       6.315  -2.235  10.266  1.00  0.00     0.073 A 
ATOM     18  C   UNL     1       7.032  -2.073  11.447  1.00  0.00     0.021 A 
BRANCH  14  19
ATOM     19  C   UNL     1       9.709  -4.743  11.205  1.00  0.00     0.417 C 
ATOM     20  F   UNL     1      10.663  -4.824  10.250  1.00  0.00    -0.166 F 
ATOM     21  F   UNL     1      10.343  -4.131  12.250  1.00  0.00    -0.166 F 
ATOM     22  F   UNL     1       9.458  -6.011  11.625  1.00  0.00    -0.166 F 
ENDBRANCH  14  19
BRANCH  17  23
ATOM     23  S   UNL     1       5.203  -0.963   9.705  1.00  0.00     0.206 S 
ATOM     24  O   UNL     1       5.752   0.310  10.149  1.00  0.00    -0.219 OA
ATOM     25  O   UNL     1       4.996  -1.210   8.291  1.00  0.00    -0.219 OA
BRANCH  23  26
ATOM     26  C   UNL     1       3.658  -1.193  10.539  1.00  0.00     0.072 A 
ATOM     27  C   UNL     1       2.758  -0.127  10.632  1.00  0.00     0.021 A 
ATOM     28  C   UNL     1       3.329  -2.456  11.041  1.00  0.00     0.021 A 
ATOM     29  C   UNL     1       1.534  -0.318  11.269  1.00  0.00     0.001 A 
ATOM     30  C   UNL     1       2.103  -2.638  11.679  1.00  0.00     0.001 A 
ATOM     31  C   UNL     1       1.211  -1.570  11.799  1.00  0.00     0.000 A 
ENDBRANCH  23  26
ENDBRANCH  17  23
ENDBRANCH   1  13
TORSDOF 6
ENDMDL
