MODEL 1
REMARK VINA RESULT:    -7.770      0.000      0.000
REMARK INTER + INTRA:         -11.686
REMARK INTER:                 -10.496
REMARK INTRA:                  -1.190
REMARK UNBOUND:                -1.190
REMARK SMILES O=S(=O)(NC1CCNCC1)c1cc(S(=O)(=O)c2ccccc2)ccc1C(F)(F)F
REMARK SMILES IDX 2 1 1 2 3 3 4 4 5 6 6 7 7 8 8 9 10 10 9 11 11 13 25 14 12 15
REMARK SMILES IDX 24 16 13 17 23 18 26 19 27 20 28 21 29 22 14 23 15 24 16 25
REMARK SMILES IDX 17 26 18 27 22 28 19 29 21 30 20 31
REMARK H PARENT 4 5 8 12
ROOT
ATOM      1  S   UNL     1      -1.684  -2.484  -0.679  1.00  0.00     0.241 S 
ATOM      2  O   UNL     1      -2.453  -3.140   0.357  1.00  0.00    -0.207 OA
ATOM      3  O   UNL     1      -2.261  -2.215  -1.980  1.00  0.00    -0.207 OA
ENDROOT
BRANCH   1   4
ATOM      4  N   UNL     1      -1.058  -1.057  -0.033  1.00  0.00    -0.208 NA
ATOM      5  H   UNL     1      -0.107  -0.854  -0.344  1.00  0.00     0.141 HD
BRANCH   4   6
ATOM      6  C   UNL     1      -1.431  -0.618   1.339  1.00  0.00     0.072 C 
ATOM      7  C   UNL     1      -2.657   0.309   1.291  1.00  0.00     0.035 C 
ATOM      8  C   UNL     1      -2.315   1.672   0.689  1.00  0.00     0.082 C 
ATOM      9  N   UNL     1      -1.196   2.313   1.384  1.00  0.00    -0.317 NA
ATOM     10  C   UNL     1      -0.307   0.109   2.062  1.00  0.00     0.035 C 
ATOM     11  C   UNL     1      -0.010   1.460   1.418  1.00  0.00     0.082 C 
ATOM     12  H   UNL     1      -1.476   2.533   2.341  1.00  0.00     0.122 HD
ENDBRANCH   4   6
ENDBRANCH   1   4
BRANCH   1  13
ATOM     13  C   UNL     1      -0.219  -3.473  -0.988  1.00  0.00     0.096 A 
ATOM     14  C   UNL     1      -0.270  -4.822  -1.388  1.00  0.00     0.076 A 
ATOM     15  C   UNL     1       1.019  -2.820  -0.855  1.00  0.00     0.043 A 
ATOM     16  C   UNL     1       0.957  -5.490  -1.625  1.00  0.00     0.016 A 
ATOM     17  C   UNL     1       2.202  -3.481  -1.188  1.00  0.00     0.073 A 
ATOM     18  C   UNL     1       2.181  -4.825  -1.547  1.00  0.00     0.021 A 
BRANCH  14  19
ATOM     19  C   UNL     1      -1.519  -5.624  -1.688  1.00  0.00     0.417 C 
ATOM     20  F   UNL     1      -2.378  -5.092  -2.588  1.00  0.00    -0.166 F 
ATOM     21  F   UNL     1      -1.186  -6.834  -2.230  1.00  0.00    -0.166 F 
ATOM     22  F   UNL     1      -2.240  -5.912  -0.573  1.00  0.00    -0.166 F 
ENDBRANCH  14  19
BRANCH  17  23
ATOM     23  S   UNL     1       3.688  -2.518  -1.384  1.00  0.00     0.206 S 
ATOM     24  O   UNL     1       4.064  -2.594  -2.787  1.00  0.00    -0.219 OA
ATOM     25  O   UNL     1       3.412  -1.231  -0.774  1.00  0.00    -0.219 OA
BRANCH  23  26
ATOM     26  C   UNL     1       4.967  -3.310  -0.449  1.00  0.00     0.072 A 
ATOM     27  C   UNL     1       5.015  -3.138   0.938  1.00  0.00     0.021 A 
ATOM     28  C   UNL     1       5.878  -4.147  -1.101  1.00  0.00     0.021 A 
ATOM     29  C   UNL     1       6.010  -3.779   1.673  1.00  0.00     0.001 A 
ATOM     30  C   UNL     1       6.871  -4.784  -0.358  1.00  0.00     0.001 A 
ATOM     31  C   UNL     1       6.941  -4.595   1.024  1.00  0.00     0.000 A 
ENDBRANCH  23  26
ENDBRANCH  17  23
ENDBRANCH   1  13
TORSDOF 6
ENDMDL
MODEL 2
REMARK VINA RESULT:    -7.461      3.032      6.106
REMARK INTER + INTRA:         -11.268
REMARK INTER:                  -9.991
REMARK INTRA:                  -1.277
REMARK UNBOUND:                -1.190
REMARK SMILES O=S(=O)(NC1CCNCC1)c1cc(S(=O)(=O)c2ccccc2)ccc1C(F)(F)F
REMARK SMILES IDX 2 1 1 2 3 3 4 4 5 6 6 7 7 8 8 9 10 10 9 11 11 13 25 14 12 15
REMARK SMILES IDX 24 16 13 17 23 18 26 19 27 20 28 21 29 22 14 23 15 24 16 25
REMARK SMILES IDX 17 26 18 27 22 28 19 29 21 30 20 31
REMARK H PARENT 4 5 8 12
ROOT
ATOM      1  S   UNL     1       1.792  -0.373   0.274  1.00  0.00     0.241 S 
ATOM      2  O   UNL     1       2.613   0.365  -0.662  1.00  0.00    -0.207 OA
ATOM      3  O   UNL     1       2.254  -0.648   1.619  1.00  0.00    -0.207 OA
ENDROOT
BRANCH   1   4
ATOM      4  N   UNL     1       0.281   0.375   0.337  1.00  0.00    -0.208 NA
ATOM      5  H   UNL     1       0.171   1.127  -0.344  1.00  0.00     0.141 HD
BRANCH   4   6
ATOM      6  C   UNL     1      -0.437   0.523   1.633  1.00  0.00     0.072 C 
ATOM      7  C   UNL     1      -1.786  -0.215   1.586  1.00  0.00     0.035 C 
ATOM      8  C   UNL     1      -2.788   0.492   0.674  1.00  0.00     0.082 C 
ATOM      9  N   UNL     1      -2.970   1.897   1.044  1.00  0.00    -0.317 NA
ATOM     10  C   UNL     1      -0.697   1.974   2.010  1.00  0.00     0.035 C 
ATOM     11  C   UNL     1      -1.704   2.626   1.068  1.00  0.00     0.082 C 
ATOM     12  H   UNL     1      -3.401   1.949   1.967  1.00  0.00     0.122 HD
ENDBRANCH   4   6
ENDBRANCH   1   4
BRANCH   1  13
ATOM     13  C   UNL     1       1.427  -1.973  -0.454  1.00  0.00     0.096 A 
ATOM     14  C   UNL     1       2.400  -2.973  -0.643  1.00  0.00     0.076 A 
ATOM     15  C   UNL     1       0.085  -2.214  -0.800  1.00  0.00     0.043 A 
ATOM     16  C   UNL     1       1.983  -4.204  -1.207  1.00  0.00     0.016 A 
ATOM     17  C   UNL     1      -0.305  -3.471  -1.263  1.00  0.00     0.073 A 
ATOM     18  C   UNL     1       0.642  -4.462  -1.496  1.00  0.00     0.021 A 
BRANCH  14  19
ATOM     19  C   UNL     1       3.851  -2.908  -0.215  1.00  0.00     0.417 C 
ATOM     20  F   UNL     1       4.087  -2.844   1.115  1.00  0.00    -0.166 F 
ATOM     21  F   UNL     1       4.511  -4.038  -0.611  1.00  0.00    -0.166 F 
ATOM     22  F   UNL     1       4.522  -1.875  -0.789  1.00  0.00    -0.166 F 
ENDBRANCH  14  19
BRANCH  17  23
ATOM     23  S   UNL     1      -2.044  -3.855  -1.313  1.00  0.00     0.206 S 
ATOM     24  O   UNL     1      -2.247  -5.024  -0.469  1.00  0.00    -0.219 OA
ATOM     25  O   UNL     1      -2.735  -2.616  -1.014  1.00  0.00    -0.219 OA
BRANCH  23  26
ATOM     26  C   UNL     1      -2.443  -4.325  -2.974  1.00  0.00     0.072 A 
ATOM     27  C   UNL     1      -2.061  -3.498  -4.034  1.00  0.00     0.021 A 
ATOM     28  C   UNL     1      -3.080  -5.547  -3.208  1.00  0.00     0.021 A 
ATOM     29  C   UNL     1      -2.357  -3.881  -5.340  1.00  0.00     0.001 A 
ATOM     30  C   UNL     1      -3.374  -5.922  -4.518  1.00  0.00     0.001 A 
ATOM     31  C   UNL     1      -3.020  -5.088  -5.581  1.00  0.00     0.000 A 
ENDBRANCH  23  26
ENDBRANCH  17  23
ENDBRANCH   1  13
TORSDOF 6
ENDMDL
MODEL 3
REMARK VINA RESULT:    -7.424      3.227      4.987
REMARK INTER + INTRA:         -11.218
REMARK INTER:                 -10.450
REMARK INTRA:                  -0.769
REMARK UNBOUND:                -1.190
REMARK SMILES O=S(=O)(NC1CCNCC1)c1cc(S(=O)(=O)c2ccccc2)ccc1C(F)(F)F
REMARK SMILES IDX 2 1 1 2 3 3 4 4 5 6 6 7 7 8 8 9 10 10 9 11 11 13 25 14 12 15
REMARK SMILES IDX 24 16 13 17 23 18 26 19 27 20 28 21 29 22 14 23 15 24 16 25
REMARK SMILES IDX 17 26 18 27 22 28 19 29 21 30 20 31
REMARK H PARENT 4 5 8 12
ROOT
ATOM      1  S   UNL     1      -1.670  -1.590   0.302  1.00  0.00     0.241 S 
ATOM      2  O   UNL     1      -2.401  -0.611  -0.474  1.00  0.00    -0.207 OA
ATOM      3  O   UNL     1      -1.939  -1.777   1.713  1.00  0.00    -0.207 OA
ENDROOT
BRANCH   1   4
ATOM      4  N   UNL     1      -1.783  -3.072  -0.496  1.00  0.00    -0.208 NA
ATOM      5  H   UNL     1      -0.922  -3.618  -0.463  1.00  0.00     0.141 HD
BRANCH   4   6
ATOM      6  C   UNL     1      -2.631  -3.216  -1.711  1.00  0.00     0.072 C 
ATOM      7  C   UNL     1      -3.400  -4.548  -1.675  1.00  0.00     0.035 C 
ATOM      8  C   UNL     1      -2.472  -5.744  -1.888  1.00  0.00     0.082 C 
ATOM      9  N   UNL     1      -1.691  -5.620  -3.121  1.00  0.00    -0.317 NA
ATOM     10  C   UNL     1      -1.836  -3.155  -3.007  1.00  0.00     0.035 C 
ATOM     11  C   UNL     1      -0.931  -4.372  -3.165  1.00  0.00     0.082 C 
ATOM     12  H   UNL     1      -2.320  -5.653  -3.923  1.00  0.00     0.122 HD
ENDBRANCH   4   6
ENDBRANCH   1   4
BRANCH   1  13
ATOM     13  C   UNL     1       0.077  -1.194   0.185  1.00  0.00     0.096 A 
ATOM     14  C   UNL     1       0.686  -0.169   0.934  1.00  0.00     0.076 A 
ATOM     15  C   UNL     1       0.846  -1.996  -0.676  1.00  0.00     0.043 A 
ATOM     16  C   UNL     1       2.079   0.032   0.771  1.00  0.00     0.016 A 
ATOM     17  C   UNL     1       2.231  -1.831  -0.739  1.00  0.00     0.073 A 
ATOM     18  C   UNL     1       2.851  -0.801  -0.040  1.00  0.00     0.021 A 
BRANCH  14  19
ATOM     19  C   UNL     1       0.019   0.695   1.984  1.00  0.00     0.417 C 
ATOM     20  F   UNL     1      -0.115   0.155   3.217  1.00  0.00    -0.166 F 
ATOM     21  F   UNL     1       0.754   1.827   2.201  1.00  0.00    -0.166 F 
ATOM     22  F   UNL     1      -1.211   1.129   1.603  1.00  0.00    -0.166 F 
ENDBRANCH  14  19
BRANCH  17  23
ATOM     23  S   UNL     1       3.202  -3.101  -1.524  1.00  0.00     0.206 S 
ATOM     24  O   UNL     1       2.289  -4.174  -1.887  1.00  0.00    -0.219 OA
ATOM     25  O   UNL     1       3.980  -2.432  -2.549  1.00  0.00    -0.219 OA
BRANCH  23  26
ATOM     26  C   UNL     1       4.322  -3.747  -0.312  1.00  0.00     0.072 A 
ATOM     27  C   UNL     1       4.361  -5.124  -0.074  1.00  0.00     0.021 A 
ATOM     28  C   UNL     1       5.198  -2.878   0.346  1.00  0.00     0.021 A 
ATOM     29  C   UNL     1       5.258  -5.630   0.863  1.00  0.00     0.001 A 
ATOM     30  C   UNL     1       6.091  -3.393   1.284  1.00  0.00     0.001 A 
ATOM     31  C   UNL     1       6.116  -4.765   1.547  1.00  0.00     0.000 A 
ENDBRANCH  23  26
ENDBRANCH  17  23
ENDBRANCH   1  13
TORSDOF 6
ENDMDL
MODEL 4
REMARK VINA RESULT:    -7.336      3.400      6.639
REMARK INTER + INTRA:         -11.100
REMARK INTER:                  -9.886
REMARK INTRA:                  -1.214
REMARK UNBOUND:                -1.190
REMARK SMILES O=S(=O)(NC1CCNCC1)c1cc(S(=O)(=O)c2ccccc2)ccc1C(F)(F)F
REMARK SMILES IDX 2 1 1 2 3 3 4 4 5 6 6 7 7 8 8 9 10 10 9 11 11 13 25 14 12 15
REMARK SMILES IDX 24 16 13 17 23 18 26 19 27 20 28 21 29 22 14 23 15 24 16 25
REMARK SMILES IDX 17 26 18 27 22 28 19 29 21 30 20 31
REMARK H PARENT 4 5 8 12
ROOT
ATOM      1  S   UNL     1       1.941  -0.849   0.342  1.00  0.00     0.241 S 
ATOM      2  O   UNL     1       2.184  -0.469   1.717  1.00  0.00    -0.207 OA
ATOM      3  O   UNL     1       2.196   0.074  -0.745  1.00  0.00    -0.207 OA
ENDROOT
BRANCH   1   4
ATOM      4  N   UNL     1       2.755  -2.298   0.055  1.00  0.00    -0.208 NA
ATOM      5  H   UNL     1       2.551  -3.023   0.744  1.00  0.00     0.141 HD
BRANCH   4   6
ATOM      6  C   UNL     1       4.118  -2.296  -0.544  1.00  0.00     0.072 C 
ATOM      7  C   UNL     1       4.105  -3.000  -1.912  1.00  0.00     0.035 C 
ATOM      8  C   UNL     1       3.907  -4.509  -1.772  1.00  0.00     0.082 C 
ATOM      9  N   UNL     1       4.900  -5.112  -0.880  1.00  0.00    -0.317 NA
ATOM     10  C   UNL     1       5.158  -2.975   0.335  1.00  0.00     0.035 C 
ATOM     11  C   UNL     1       4.911  -4.477   0.436  1.00  0.00     0.082 C 
ATOM     12  H   UNL     1       5.826  -5.025  -1.299  1.00  0.00     0.122 HD
ENDBRANCH   4   6
ENDBRANCH   1   4
BRANCH   1  13
ATOM     13  C   UNL     1       0.213  -1.313   0.195  1.00  0.00     0.096 A 
ATOM     14  C   UNL     1      -0.838  -0.549   0.736  1.00  0.00     0.076 A 
ATOM     15  C   UNL     1      -0.064  -2.480  -0.540  1.00  0.00     0.043 A 
ATOM     16  C   UNL     1      -2.163  -1.007   0.533  1.00  0.00     0.016 A 
ATOM     17  C   UNL     1      -1.384  -2.849  -0.801  1.00  0.00     0.073 A 
ATOM     18  C   UNL     1      -2.439  -2.133  -0.244  1.00  0.00     0.021 A 
BRANCH  14  19
ATOM     19  C   UNL     1      -0.709   0.784   1.444  1.00  0.00     0.417 C 
ATOM     20  F   UNL     1       0.003   1.741   0.807  1.00  0.00    -0.166 F 
ATOM     21  F   UNL     1      -1.942   1.351   1.612  1.00  0.00    -0.166 F 
ATOM     22  F   UNL     1      -0.190   0.666   2.694  1.00  0.00    -0.166 F 
ENDBRANCH  14  19
BRANCH  17  23
ATOM     23  S   UNL     1      -1.690  -4.086  -2.045  1.00  0.00     0.206 S 
ATOM     24  O   UNL     1      -3.130  -4.286  -2.102  1.00  0.00    -0.219 OA
ATOM     25  O   UNL     1      -0.970  -3.651  -3.226  1.00  0.00    -0.219 OA
BRANCH  23  26
ATOM     26  C   UNL     1      -0.966  -5.603  -1.483  1.00  0.00     0.072 A 
ATOM     27  C   UNL     1       0.391  -5.845  -1.713  1.00  0.00     0.021 A 
ATOM     28  C   UNL     1      -1.747  -6.511  -0.762  1.00  0.00     0.021 A 
ATOM     29  C   UNL     1       0.962  -7.029  -1.250  1.00  0.00     0.001 A 
ATOM     30  C   UNL     1      -1.169  -7.694  -0.304  1.00  0.00     0.001 A 
ATOM     31  C   UNL     1       0.181  -7.955  -0.554  1.00  0.00     0.000 A 
ENDBRANCH  23  26
ENDBRANCH  17  23
ENDBRANCH   1  13
TORSDOF 6
ENDMDL
MODEL 5
REMARK VINA RESULT:    -7.295      3.417      6.802
REMARK INTER + INTRA:         -11.044
REMARK INTER:                 -10.396
REMARK INTRA:                  -0.648
REMARK UNBOUND:                -1.190
REMARK SMILES O=S(=O)(NC1CCNCC1)c1cc(S(=O)(=O)c2ccccc2)ccc1C(F)(F)F
REMARK SMILES IDX 2 1 1 2 3 3 4 4 5 6 6 7 7 8 8 9 10 10 9 11 11 13 25 14 12 15
REMARK SMILES IDX 24 16 13 17 23 18 26 19 27 20 28 21 29 22 14 23 15 24 16 25
REMARK SMILES IDX 17 26 18 27 22 28 19 29 21 30 20 31
REMARK H PARENT 4 5 8 12
ROOT
ATOM      1  S   UNL     1       4.801  -5.023  -2.341  1.00  0.00     0.241 S 
ATOM      2  O   UNL     1       5.636  -4.030  -2.982  1.00  0.00    -0.207 OA
ATOM      3  O   UNL     1       4.370  -6.209  -3.053  1.00  0.00    -0.207 OA
ENDROOT
BRANCH   1   4
ATOM      4  N   UNL     1       5.548  -5.472  -0.897  1.00  0.00    -0.208 NA
ATOM      5  H   UNL     1       4.900  -5.851  -0.205  1.00  0.00     0.141 HD
BRANCH   4   6
ATOM      6  C   UNL     1       6.722  -4.716  -0.384  1.00  0.00     0.072 C 
ATOM      7  C   UNL     1       7.512  -5.569   0.624  1.00  0.00     0.035 C 
ATOM      8  C   UNL     1       6.751  -5.747   1.936  1.00  0.00     0.082 C 
ATOM      9  N   UNL     1       6.363  -4.463   2.525  1.00  0.00    -0.317 NA
ATOM     10  C   UNL     1       6.342  -3.406   0.291  1.00  0.00     0.035 C 
ATOM     11  C   UNL     1       5.587  -3.646   1.594  1.00  0.00     0.082 C 
ATOM     12  H   UNL     1       7.202  -3.951   2.797  1.00  0.00     0.122 HD
ENDBRANCH   4   6
ENDBRANCH   1   4
BRANCH   1  13
ATOM     13  C   UNL     1       3.299  -4.209  -1.791  1.00  0.00     0.096 A 
ATOM     14  C   UNL     1       2.125  -4.907  -1.451  1.00  0.00     0.076 A 
ATOM     15  C   UNL     1       3.353  -2.809  -1.667  1.00  0.00     0.043 A 
ATOM     16  C   UNL     1       1.011  -4.152  -1.007  1.00  0.00     0.016 A 
ATOM     17  C   UNL     1       2.269  -2.109  -1.137  1.00  0.00     0.073 A 
ATOM     18  C   UNL     1       1.084  -2.770  -0.830  1.00  0.00     0.021 A 
BRANCH  14  19
ATOM     19  C   UNL     1       1.950  -6.411  -1.417  1.00  0.00     0.417 C 
ATOM     20  F   UNL     1       2.857  -7.109  -0.696  1.00  0.00    -0.166 F 
ATOM     21  F   UNL     1       0.755  -6.736  -0.840  1.00  0.00    -0.166 F 
ATOM     22  F   UNL     1       1.918  -6.964  -2.658  1.00  0.00    -0.166 F 
ENDBRANCH  14  19
BRANCH  17  23
ATOM     23  S   UNL     1       2.514  -0.418  -0.634  1.00  0.00     0.206 S 
ATOM     24  O   UNL     1       3.658  -0.402   0.265  1.00  0.00    -0.219 OA
ATOM     25  O   UNL     1       2.540   0.362  -1.856  1.00  0.00    -0.219 OA
BRANCH  23  26
ATOM     26  C   UNL     1       1.095   0.075   0.306  1.00  0.00     0.072 A 
ATOM     27  C   UNL     1      -0.084   0.424  -0.359  1.00  0.00     0.021 A 
ATOM     28  C   UNL     1       1.153   0.048   1.702  1.00  0.00     0.021 A 
ATOM     29  C   UNL     1      -1.204   0.789   0.384  1.00  0.00     0.001 A 
ATOM     30  C   UNL     1       0.027   0.416   2.438  1.00  0.00     0.001 A 
ATOM     31  C   UNL     1      -1.146   0.793   1.780  1.00  0.00     0.000 A 
ENDBRANCH  23  26
ENDBRANCH  17  23
ENDBRANCH   1  13
TORSDOF 6
ENDMDL
MODEL 6
REMARK VINA RESULT:    -7.261      3.010      5.787
REMARK INTER + INTRA:         -10.998
REMARK INTER:                  -9.522
REMARK INTRA:                  -1.476
REMARK UNBOUND:                -1.190
REMARK SMILES O=S(=O)(NC1CCNCC1)c1cc(S(=O)(=O)c2ccccc2)ccc1C(F)(F)F
REMARK SMILES IDX 2 1 1 2 3 3 4 4 5 6 6 7 7 8 8 9 10 10 9 11 11 13 25 14 12 15
REMARK SMILES IDX 24 16 13 17 23 18 26 19 27 20 28 21 29 22 14 23 15 24 16 25
REMARK SMILES IDX 17 26 18 27 22 28 19 29 21 30 20 31
REMARK H PARENT 4 5 8 12
ROOT
ATOM      1  S   UNL     1       1.776  -0.475   0.215  1.00  0.00     0.241 S 
ATOM      2  O   UNL     1       2.619   0.274  -0.691  1.00  0.00    -0.207 OA
ATOM      3  O   UNL     1       2.239  -0.838   1.539  1.00  0.00    -0.207 OA
ENDROOT
BRANCH   1   4
ATOM      4  N   UNL     1       0.300   0.331   0.335  1.00  0.00    -0.208 NA
ATOM      5  H   UNL     1       0.210   1.114  -0.314  1.00  0.00     0.141 HD
BRANCH   4   6
ATOM      6  C   UNL     1      -0.391   0.457   1.648  1.00  0.00     0.072 C 
ATOM      7  C   UNL     1      -1.747  -0.269   1.613  1.00  0.00     0.035 C 
ATOM      8  C   UNL     1      -2.762   0.465   0.737  1.00  0.00     0.082 C 
ATOM      9  N   UNL     1      -2.924   1.864   1.141  1.00  0.00    -0.317 NA
ATOM     10  C   UNL     1      -0.631   1.901   2.062  1.00  0.00     0.035 C 
ATOM     11  C   UNL     1      -1.651   2.581   1.155  1.00  0.00     0.082 C 
ATOM     12  H   UNL     1      -3.336   1.899   2.074  1.00  0.00     0.122 HD
ENDBRANCH   4   6
ENDBRANCH   1   4
BRANCH   1  13
ATOM     13  C   UNL     1       1.336  -2.019  -0.589  1.00  0.00     0.096 A 
ATOM     14  C   UNL     1       2.264  -3.047  -0.843  1.00  0.00     0.076 A 
ATOM     15  C   UNL     1      -0.018  -2.187  -0.927  1.00  0.00     0.043 A 
ATOM     16  C   UNL     1       1.789  -4.229  -1.464  1.00  0.00     0.016 A 
ATOM     17  C   UNL     1      -0.467  -3.401  -1.450  1.00  0.00     0.073 A 
ATOM     18  C   UNL     1       0.436  -4.416  -1.747  1.00  0.00     0.021 A 
BRANCH  14  19
ATOM     19  C   UNL     1       3.721  -3.064  -0.433  1.00  0.00     0.417 C 
ATOM     20  F   UNL     1       3.980  -2.928   0.888  1.00  0.00    -0.166 F 
ATOM     21  F   UNL     1       4.289  -4.265  -0.755  1.00  0.00    -0.166 F 
ATOM     22  F   UNL     1       4.461  -2.127  -1.083  1.00  0.00    -0.166 F 
ENDBRANCH  14  19
BRANCH  17  23
ATOM     23  S   UNL     1      -2.220  -3.710  -1.495  1.00  0.00     0.206 S 
ATOM     24  O   UNL     1      -2.883  -2.415  -1.475  1.00  0.00    -0.219 OA
ATOM     25  O   UNL     1      -2.436  -4.620  -2.603  1.00  0.00    -0.219 OA
BRANCH  23  26
ATOM     26  C   UNL     1      -2.656  -4.550   0.003  1.00  0.00     0.072 A 
ATOM     27  C   UNL     1      -3.017  -3.807   1.131  1.00  0.00     0.021 A 
ATOM     28  C   UNL     1      -2.695  -5.948   0.021  1.00  0.00     0.021 A 
ATOM     29  C   UNL     1      -3.380  -4.471   2.300  1.00  0.00     0.001 A 
ATOM     30  C   UNL     1      -3.058  -6.605   1.196  1.00  0.00     0.001 A 
ATOM     31  C   UNL     1      -3.393  -5.868   2.334  1.00  0.00     0.000 A 
ENDBRANCH  23  26
ENDBRANCH  17  23
ENDBRANCH   1  13
TORSDOF 6
ENDMDL
MODEL 7
REMARK VINA RESULT:    -7.209      2.570      6.930
REMARK INTER + INTRA:         -10.928
REMARK INTER:                 -10.775
REMARK INTRA:                  -0.153
REMARK UNBOUND:                -1.190
REMARK SMILES O=S(=O)(NC1CCNCC1)c1cc(S(=O)(=O)c2ccccc2)ccc1C(F)(F)F
REMARK SMILES IDX 2 1 1 2 3 3 4 4 5 6 6 7 7 8 8 9 10 10 9 11 11 13 25 14 12 15
REMARK SMILES IDX 24 16 13 17 23 18 26 19 27 20 28 21 29 22 14 23 15 24 16 25
REMARK SMILES IDX 17 26 18 27 22 28 19 29 21 30 20 31
REMARK H PARENT 4 5 8 12
ROOT
ATOM      1  S   UNL     1       3.092  -2.012  -0.588  1.00  0.00     0.241 S 
ATOM      2  O   UNL     1       2.965  -0.898   0.327  1.00  0.00    -0.207 OA
ATOM      3  O   UNL     1       3.642  -1.829  -1.916  1.00  0.00    -0.207 OA
ENDROOT
BRANCH   1   4
ATOM      4  N   UNL     1       3.932  -3.240   0.206  1.00  0.00    -0.208 NA
ATOM      5  H   UNL     1       3.392  -3.688   0.948  1.00  0.00     0.141 HD
BRANCH   4   6
ATOM      6  C   UNL     1       5.405  -3.149   0.401  1.00  0.00     0.072 C 
ATOM      7  C   UNL     1       6.141  -3.961  -0.680  1.00  0.00     0.035 C 
ATOM      8  C   UNL     1       5.966  -5.465  -0.476  1.00  0.00     0.082 C 
ATOM      9  N   UNL     1       6.370  -5.887   0.867  1.00  0.00    -0.317 NA
ATOM     10  C   UNL     1       5.861  -3.642   1.766  1.00  0.00     0.035 C 
ATOM     11  C   UNL     1       5.664  -5.148   1.911  1.00  0.00     0.082 C 
ATOM     12  H   UNL     1       7.374  -5.741   0.978  1.00  0.00     0.122 HD
ENDBRANCH   4   6
ENDBRANCH   1   4
BRANCH   1  13
ATOM     13  C   UNL     1       1.460  -2.719  -0.827  1.00  0.00     0.096 A 
ATOM     14  C   UNL     1       1.249  -4.019  -1.325  1.00  0.00     0.076 A 
ATOM     15  C   UNL     1       0.368  -1.919  -0.447  1.00  0.00     0.043 A 
ATOM     16  C   UNL     1      -0.088  -4.473  -1.445  1.00  0.00     0.016 A 
ATOM     17  C   UNL     1      -0.929  -2.434  -0.490  1.00  0.00     0.073 A 
ATOM     18  C   UNL     1      -1.168  -3.700  -1.015  1.00  0.00     0.021 A 
BRANCH  14  19
ATOM     19  C   UNL     1       2.317  -5.037  -1.662  1.00  0.00     0.417 C 
ATOM     20  F   UNL     1       2.892  -5.680  -0.619  1.00  0.00    -0.166 F 
ATOM     21  F   UNL     1       1.787  -6.047  -2.416  1.00  0.00    -0.166 F 
ATOM     22  F   UNL     1       3.323  -4.514  -2.411  1.00  0.00    -0.166 F 
ENDBRANCH  14  19
BRANCH  17  23
ATOM     23  S   UNL     1      -2.223  -1.550   0.357  1.00  0.00     0.206 S 
ATOM     24  O   UNL     1      -3.210  -1.175  -0.645  1.00  0.00    -0.219 OA
ATOM     25  O   UNL     1      -2.607  -2.384   1.479  1.00  0.00    -0.219 OA
BRANCH  23  26
ATOM     26  C   UNL     1      -1.522  -0.053   0.995  1.00  0.00     0.072 A 
ATOM     27  C   UNL     1      -2.071   1.178   0.624  1.00  0.00     0.021 A 
ATOM     28  C   UNL     1      -0.468  -0.123   1.911  1.00  0.00     0.021 A 
ATOM     29  C   UNL     1      -1.531   2.352   1.145  1.00  0.00     0.001 A 
ATOM     30  C   UNL     1       0.068   1.056   2.426  1.00  0.00     0.001 A 
ATOM     31  C   UNL     1      -0.458   2.291   2.039  1.00  0.00     0.000 A 
ENDBRANCH  23  26
ENDBRANCH  17  23
ENDBRANCH   1  13
TORSDOF 6
ENDMDL
MODEL 8
REMARK VINA RESULT:    -7.104      3.394      7.723
REMARK INTER + INTRA:         -10.786
REMARK INTER:                 -10.557
REMARK INTRA:                  -0.228
REMARK UNBOUND:                -1.190
REMARK SMILES O=S(=O)(NC1CCNCC1)c1cc(S(=O)(=O)c2ccccc2)ccc1C(F)(F)F
REMARK SMILES IDX 2 1 1 2 3 3 4 4 5 6 6 7 7 8 8 9 10 10 9 11 11 13 25 14 12 15
REMARK SMILES IDX 24 16 13 17 23 18 26 19 27 20 28 21 29 22 14 23 15 24 16 25
REMARK SMILES IDX 17 26 18 27 22 28 19 29 21 30 20 31
REMARK H PARENT 4 5 8 12
ROOT
ATOM      1  S   UNL     1       4.738  -4.001  -0.146  1.00  0.00     0.241 S 
ATOM      2  O   UNL     1       4.644  -5.191   0.673  1.00  0.00    -0.207 OA
ATOM      3  O   UNL     1       5.561  -2.879   0.258  1.00  0.00    -0.207 OA
ENDROOT
BRANCH   1   4
ATOM      4  N   UNL     1       5.163  -4.481  -1.706  1.00  0.00    -0.208 NA
ATOM      5  H   UNL     1       4.617  -5.270  -2.052  1.00  0.00     0.141 HD
BRANCH   4   6
ATOM      6  C   UNL     1       6.572  -4.374  -2.174  1.00  0.00     0.072 C 
ATOM      7  C   UNL     1       6.673  -4.745  -3.664  1.00  0.00     0.035 C 
ATOM      8  C   UNL     1       6.457  -6.241  -3.892  1.00  0.00     0.082 C 
ATOM      9  N   UNL     1       7.367  -7.056  -3.084  1.00  0.00    -0.317 NA
ATOM     10  C   UNL     1       7.531  -5.261  -1.393  1.00  0.00     0.035 C 
ATOM     11  C   UNL     1       7.270  -6.739  -1.661  1.00  0.00     0.082 C 
ATOM     12  H   UNL     1       8.326  -6.898  -3.395  1.00  0.00     0.122 HD
ENDBRANCH   4   6
ENDBRANCH   1   4
BRANCH   1  13
ATOM     13  C   UNL     1       3.082  -3.343  -0.356  1.00  0.00     0.096 A 
ATOM     14  C   UNL     1       2.035  -4.067  -0.958  1.00  0.00     0.076 A 
ATOM     15  C   UNL     1       2.849  -2.054   0.157  1.00  0.00     0.043 A 
ATOM     16  C   UNL     1       0.764  -3.447  -1.044  1.00  0.00     0.016 A 
ATOM     17  C   UNL     1       1.562  -1.514   0.140  1.00  0.00     0.073 A 
ATOM     18  C   UNL     1       0.521  -2.192  -0.484  1.00  0.00     0.021 A 
BRANCH  14  19
ATOM     19  C   UNL     1       2.098  -5.499  -1.446  1.00  0.00     0.417 C 
ATOM     20  F   UNL     1       2.576  -6.416  -0.575  1.00  0.00    -0.166 F 
ATOM     21  F   UNL     1       0.843  -5.953  -1.742  1.00  0.00    -0.166 F 
ATOM     22  F   UNL     1       2.812  -5.631  -2.595  1.00  0.00    -0.166 F 
ENDBRANCH  14  19
BRANCH  17  23
ATOM     23  S   UNL     1       1.233  -0.074   1.135  1.00  0.00     0.206 S 
ATOM     24  O   UNL     1       1.580  -0.415   2.507  1.00  0.00    -0.219 OA
ATOM     25  O   UNL     1       1.898   1.031   0.471  1.00  0.00    -0.219 OA
BRANCH  23  26
ATOM     26  C   UNL     1      -0.513   0.223   1.089  1.00  0.00     0.072 A 
ATOM     27  C   UNL     1      -1.394  -0.779   1.505  1.00  0.00     0.021 A 
ATOM     28  C   UNL     1      -0.986   1.479   0.697  1.00  0.00     0.021 A 
ATOM     29  C   UNL     1      -2.765  -0.535   1.489  1.00  0.00     0.001 A 
ATOM     30  C   UNL     1      -2.360   1.715   0.681  1.00  0.00     0.001 A 
ATOM     31  C   UNL     1      -3.247   0.709   1.070  1.00  0.00     0.000 A 
ENDBRANCH  23  26
ENDBRANCH  17  23
ENDBRANCH   1  13
TORSDOF 6
ENDMDL
MODEL 9
REMARK VINA RESULT:    -7.099      3.569      7.181
REMARK INTER + INTRA:         -10.780
REMARK INTER:                  -9.234
REMARK INTRA:                  -1.546
REMARK UNBOUND:                -1.190
REMARK SMILES O=S(=O)(NC1CCNCC1)c1cc(S(=O)(=O)c2ccccc2)ccc1C(F)(F)F
REMARK SMILES IDX 2 1 1 2 3 3 4 4 5 6 6 7 7 8 8 9 10 10 9 11 11 13 25 14 12 15
REMARK SMILES IDX 24 16 13 17 23 18 26 19 27 20 28 21 29 22 14 23 15 24 16 25
REMARK SMILES IDX 17 26 18 27 22 28 19 29 21 30 20 31
REMARK H PARENT 4 5 8 12
ROOT
ATOM      1  S   UNL     1       3.015  -2.139  -0.598  1.00  0.00     0.241 S 
ATOM      2  O   UNL     1       3.635  -2.305   0.699  1.00  0.00    -0.207 OA
ATOM      3  O   UNL     1       3.362  -1.023  -1.454  1.00  0.00    -0.207 OA
ENDROOT
BRANCH   1   4
ATOM      4  N   UNL     1       3.202  -3.583  -1.449  1.00  0.00    -0.208 NA
ATOM      5  H   UNL     1       2.372  -3.853  -1.978  1.00  0.00     0.141 HD
BRANCH   4   6
ATOM      6  C   UNL     1       4.044  -4.682  -0.901  1.00  0.00     0.072 C 
ATOM      7  C   UNL     1       5.516  -4.479  -1.298  1.00  0.00     0.035 C 
ATOM      8  C   UNL     1       5.741  -4.726  -2.789  1.00  0.00     0.082 C 
ATOM      9  N   UNL     1       5.261  -6.045  -3.205  1.00  0.00    -0.317 NA
ATOM     10  C   UNL     1       3.606  -6.062  -1.370  1.00  0.00     0.035 C 
ATOM     11  C   UNL     1       3.855  -6.250  -2.863  1.00  0.00     0.082 C 
ATOM     12  H   UNL     1       5.822  -6.766  -2.751  1.00  0.00     0.122 HD
ENDBRANCH   4   6
ENDBRANCH   1   4
BRANCH   1  13
ATOM     13  C   UNL     1       1.240  -2.034  -0.352  1.00  0.00     0.096 A 
ATOM     14  C   UNL     1       0.629  -1.036   0.431  1.00  0.00     0.076 A 
ATOM     15  C   UNL     1       0.455  -2.987  -1.025  1.00  0.00     0.043 A 
ATOM     16  C   UNL     1      -0.785  -1.044   0.529  1.00  0.00     0.016 A 
ATOM     17  C   UNL     1      -0.937  -2.907  -0.982  1.00  0.00     0.073 A 
ATOM     18  C   UNL     1      -1.564  -1.956  -0.185  1.00  0.00     0.021 A 
BRANCH  14  19
ATOM     19  C   UNL     1       1.324   0.123   1.114  1.00  0.00     0.417 C 
ATOM     20  F   UNL     1       2.240   0.797   0.381  1.00  0.00    -0.166 F 
ATOM     21  F   UNL     1       0.414   1.082   1.462  1.00  0.00    -0.166 F 
ATOM     22  F   UNL     1       1.931  -0.240   2.275  1.00  0.00    -0.166 F 
ENDBRANCH  14  19
BRANCH  17  23
ATOM     23  S   UNL     1      -1.879  -3.873  -2.145  1.00  0.00     0.206 S 
ATOM     24  O   UNL     1      -3.185  -4.106  -1.546  1.00  0.00    -0.219 OA
ATOM     25  O   UNL     1      -1.776  -3.180  -3.415  1.00  0.00    -0.219 OA
BRANCH  23  26
ATOM     26  C   UNL     1      -1.082  -5.446  -2.307  1.00  0.00     0.072 A 
ATOM     27  C   UNL     1      -0.449  -5.778  -3.508  1.00  0.00     0.021 A 
ATOM     28  C   UNL     1      -1.042  -6.313  -1.210  1.00  0.00     0.021 A 
ATOM     29  C   UNL     1       0.196  -7.007  -3.625  1.00  0.00     0.001 A 
ATOM     30  C   UNL     1      -0.396  -7.542  -1.335  1.00  0.00     0.001 A 
ATOM     31  C   UNL     1       0.215  -7.891  -2.542  1.00  0.00     0.000 A 
ENDBRANCH  23  26
ENDBRANCH  17  23
ENDBRANCH   1  13
TORSDOF 6
ENDMDL
MODEL 10
REMARK VINA RESULT:    -7.020      5.087      8.404
REMARK INTER + INTRA:         -10.673
REMARK INTER:                  -9.828
REMARK INTRA:                  -0.845
REMARK UNBOUND:                -1.190
REMARK SMILES O=S(=O)(NC1CCNCC1)c1cc(S(=O)(=O)c2ccccc2)ccc1C(F)(F)F
REMARK SMILES IDX 2 1 1 2 3 3 4 4 5 6 6 7 7 8 8 9 10 10 9 11 11 13 25 14 12 15
REMARK SMILES IDX 24 16 13 17 23 18 26 19 27 20 28 21 29 22 14 23 15 24 16 25
REMARK SMILES IDX 17 26 18 27 22 28 19 29 21 30 20 31
REMARK H PARENT 4 5 8 12
ROOT
ATOM      1  S   UNL     1       5.937  -7.641  -0.271  1.00  0.00     0.241 S 
ATOM      2  O   UNL     1       5.373  -8.508   0.742  1.00  0.00    -0.207 OA
ATOM      3  O   UNL     1       7.354  -7.664  -0.569  1.00  0.00    -0.207 OA
ENDROOT
BRANCH   1   4
ATOM      4  N   UNL     1       5.056  -7.864  -1.692  1.00  0.00    -0.208 NA
ATOM      5  H   UNL     1       4.138  -8.282  -1.540  1.00  0.00     0.141 HD
BRANCH   4   6
ATOM      6  C   UNL     1       5.748  -8.194  -2.968  1.00  0.00     0.072 C 
ATOM      7  C   UNL     1       6.579  -6.994  -3.454  1.00  0.00     0.035 C 
ATOM      8  C   UNL     1       5.692  -5.853  -3.951  1.00  0.00     0.082 C 
ATOM      9  N   UNL     1       4.755  -6.298  -4.985  1.00  0.00    -0.317 NA
ATOM     10  C   UNL     1       4.792  -8.597  -4.081  1.00  0.00     0.035 C 
ATOM     11  C   UNL     1       3.935  -7.421  -4.535  1.00  0.00     0.082 C 
ATOM     12  H   UNL     1       5.278  -6.579  -5.815  1.00  0.00     0.122 HD
ENDBRANCH   4   6
ENDBRANCH   1   4
BRANCH   1  13
ATOM     13  C   UNL     1       5.560  -5.945   0.183  1.00  0.00     0.096 A 
ATOM     14  C   UNL     1       6.284  -5.229   1.155  1.00  0.00     0.076 A 
ATOM     15  C   UNL     1       4.512  -5.325  -0.520  1.00  0.00     0.043 A 
ATOM     16  C   UNL     1       5.905  -3.887   1.408  1.00  0.00     0.016 A 
ATOM     17  C   UNL     1       4.229  -3.975  -0.312  1.00  0.00     0.073 A 
ATOM     18  C   UNL     1       4.902  -3.256   0.670  1.00  0.00     0.021 A 
BRANCH  14  19
ATOM     19  C   UNL     1       7.505  -5.716   1.906  1.00  0.00     0.417 C 
ATOM     20  F   UNL     1       8.627  -5.909   1.176  1.00  0.00    -0.166 F 
ATOM     21  F   UNL     1       7.881  -4.796   2.845  1.00  0.00    -0.166 F 
ATOM     22  F   UNL     1       7.275  -6.864   2.595  1.00  0.00    -0.166 F 
ENDBRANCH  14  19
BRANCH  17  23
ATOM     23  S   UNL     1       3.179  -3.137  -1.482  1.00  0.00     0.206 S 
ATOM     24  O   UNL     1       4.047  -2.563  -2.500  1.00  0.00    -0.219 OA
ATOM     25  O   UNL     1       2.156  -4.094  -1.856  1.00  0.00    -0.219 OA
BRANCH  23  26
ATOM     26  C   UNL     1       2.396  -1.793  -0.634  1.00  0.00     0.072 A 
ATOM     27  C   UNL     1       1.122  -1.972  -0.086  1.00  0.00     0.021 A 
ATOM     28  C   UNL     1       3.086  -0.588  -0.469  1.00  0.00     0.021 A 
ATOM     29  C   UNL     1       0.518  -0.920   0.599  1.00  0.00     0.001 A 
ATOM     30  C   UNL     1       2.474   0.460   0.216  1.00  0.00     0.001 A 
ATOM     31  C   UNL     1       1.191   0.296   0.743  1.00  0.00     0.000 A 
ENDBRANCH  23  26
ENDBRANCH  17  23
ENDBRANCH   1  13
TORSDOF 6
ENDMDL
MODEL 11
REMARK VINA RESULT:    -6.821      3.882      7.716
REMARK INTER + INTRA:         -10.404
REMARK INTER:                  -9.826
REMARK INTRA:                  -0.579
REMARK UNBOUND:                -1.190
REMARK SMILES O=S(=O)(NC1CCNCC1)c1cc(S(=O)(=O)c2ccccc2)ccc1C(F)(F)F
REMARK SMILES IDX 2 1 1 2 3 3 4 4 5 6 6 7 7 8 8 9 10 10 9 11 11 13 25 14 12 15
REMARK SMILES IDX 24 16 13 17 23 18 26 19 27 20 28 21 29 22 14 23 15 24 16 25
REMARK SMILES IDX 17 26 18 27 22 28 19 29 21 30 20 31
REMARK H PARENT 4 5 8 12
ROOT
ATOM      1  S   UNL     1       5.893  -4.503   0.365  1.00  0.00     0.241 S 
ATOM      2  O   UNL     1       5.614  -5.292   1.547  1.00  0.00    -0.207 OA
ATOM      3  O   UNL     1       6.702  -3.304   0.442  1.00  0.00    -0.207 OA
ENDROOT
BRANCH   1   4
ATOM      4  N   UNL     1       6.524  -5.536  -0.809  1.00  0.00    -0.208 NA
ATOM      5  H   UNL     1       6.677  -6.488  -0.474  1.00  0.00     0.141 HD
BRANCH   4   6
ATOM      6  C   UNL     1       7.462  -5.023  -1.845  1.00  0.00     0.072 C 
ATOM      7  C   UNL     1       6.700  -4.686  -3.139  1.00  0.00     0.035 C 
ATOM      8  C   UNL     1       6.216  -5.945  -3.857  1.00  0.00     0.082 C 
ATOM      9  N   UNL     1       7.311  -6.882  -4.119  1.00  0.00    -0.317 NA
ATOM     10  C   UNL     1       8.574  -6.004  -2.185  1.00  0.00     0.035 C 
ATOM     11  C   UNL     1       8.032  -7.238  -2.900  1.00  0.00     0.082 C 
ATOM     12  H   UNL     1       7.964  -6.460  -4.780  1.00  0.00     0.122 HD
ENDBRANCH   4   6
ENDBRANCH   1   4
BRANCH   1  13
ATOM     13  C   UNL     1       4.323  -3.991  -0.339  1.00  0.00     0.096 A 
ATOM     14  C   UNL     1       3.339  -4.901  -0.770  1.00  0.00     0.076 A 
ATOM     15  C   UNL     1       4.087  -2.607  -0.406  1.00  0.00     0.043 A 
ATOM     16  C   UNL     1       2.130  -4.373  -1.287  1.00  0.00     0.016 A 
ATOM     17  C   UNL     1       2.848  -2.125  -0.832  1.00  0.00     0.073 A 
ATOM     18  C   UNL     1       1.875  -3.001  -1.300  1.00  0.00     0.021 A 
BRANCH  14  19
ATOM     19  C   UNL     1       3.396  -6.410  -0.653  1.00  0.00     0.417 C 
ATOM     20  F   UNL     1       3.739  -6.910   0.556  1.00  0.00    -0.166 F 
ATOM     21  F   UNL     1       2.163  -6.949  -0.892  1.00  0.00    -0.166 F 
ATOM     22  F   UNL     1       4.224  -6.977  -1.568  1.00  0.00    -0.166 F 
ENDBRANCH  14  19
BRANCH  17  23
ATOM     23  S   UNL     1       2.454  -0.414  -0.533  1.00  0.00     0.206 S 
ATOM     24  O   UNL     1       3.468   0.106   0.373  1.00  0.00    -0.219 OA
ATOM     25  O   UNL     1       2.272   0.187  -1.841  1.00  0.00    -0.219 OA
BRANCH  23  26
ATOM     26  C   UNL     1       0.903  -0.361   0.321  1.00  0.00     0.072 A 
ATOM     27  C   UNL     1       0.860   0.084   1.645  1.00  0.00     0.021 A 
ATOM     28  C   UNL     1      -0.269  -0.706  -0.360  1.00  0.00     0.021 A 
ATOM     29  C   UNL     1      -0.364   0.146   2.307  1.00  0.00     0.001 A 
ATOM     30  C   UNL     1      -1.490  -0.644   0.310  1.00  0.00     0.001 A 
ATOM     31  C   UNL     1      -1.536  -0.226   1.642  1.00  0.00     0.000 A 
ENDBRANCH  23  26
ENDBRANCH  17  23
ENDBRANCH   1  13
TORSDOF 6
ENDMDL
MODEL 12
REMARK VINA RESULT:    -6.764      3.684      7.540
REMARK INTER + INTRA:         -10.327
REMARK INTER:                  -9.604
REMARK INTRA:                  -0.723
REMARK UNBOUND:                -1.190
REMARK SMILES O=S(=O)(NC1CCNCC1)c1cc(S(=O)(=O)c2ccccc2)ccc1C(F)(F)F
REMARK SMILES IDX 2 1 1 2 3 3 4 4 5 6 6 7 7 8 8 9 10 10 9 11 11 13 25 14 12 15
REMARK SMILES IDX 24 16 13 17 23 18 26 19 27 20 28 21 29 22 14 23 15 24 16 25
REMARK SMILES IDX 17 26 18 27 22 28 19 29 21 30 20 31
REMARK H PARENT 4 5 8 12
ROOT
ATOM      1  S   UNL     1       3.079  -3.334  -1.511  1.00  0.00     0.241 S 
ATOM      2  O   UNL     1       3.717  -2.342  -2.350  1.00  0.00    -0.207 OA
ATOM      3  O   UNL     1       2.746  -4.646  -2.028  1.00  0.00    -0.207 OA
ENDROOT
BRANCH   1   4
ATOM      4  N   UNL     1       4.001  -3.496  -0.109  1.00  0.00    -0.208 NA
ATOM      5  H   UNL     1       3.530  -3.151   0.729  1.00  0.00     0.141 HD
BRANCH   4   6
ATOM      6  C   UNL     1       5.483  -3.367  -0.156  1.00  0.00     0.072 C 
ATOM      7  C   UNL     1       6.102  -4.560  -0.904  1.00  0.00     0.035 C 
ATOM      8  C   UNL     1       6.001  -5.852  -0.094  1.00  0.00     0.082 C 
ATOM      9  N   UNL     1       6.583  -5.708   1.243  1.00  0.00    -0.317 NA
ATOM     10  C   UNL     1       6.121  -3.280   1.222  1.00  0.00     0.035 C 
ATOM     11  C   UNL     1       5.990  -4.596   1.982  1.00  0.00     0.082 C 
ATOM     12  H   UNL     1       7.588  -5.552   1.157  1.00  0.00     0.122 HD
ENDBRANCH   4   6
ENDBRANCH   1   4
BRANCH   1  13
ATOM     13  C   UNL     1       1.537  -2.639  -0.911  1.00  0.00     0.096 A 
ATOM     14  C   UNL     1       1.436  -1.346  -0.362  1.00  0.00     0.076 A 
ATOM     15  C   UNL     1       0.390  -3.440  -1.053  1.00  0.00     0.043 A 
ATOM     16  C   UNL     1       0.157  -0.901   0.055  1.00  0.00     0.016 A 
ATOM     17  C   UNL     1      -0.867  -2.933  -0.720  1.00  0.00     0.073 A 
ATOM     18  C   UNL     1      -0.988  -1.675  -0.139  1.00  0.00     0.021 A 
BRANCH  14  19
ATOM     19  C   UNL     1       2.550  -0.326  -0.254  1.00  0.00     0.417 C 
ATOM     20  F   UNL     1       2.944   0.264  -1.406  1.00  0.00    -0.166 F 
ATOM     21  F   UNL     1       2.158   0.721   0.532  1.00  0.00    -0.166 F 
ATOM     22  F   UNL     1       3.666  -0.828   0.338  1.00  0.00    -0.166 F 
ENDBRANCH  14  19
BRANCH  17  23
ATOM     23  S   UNL     1      -2.313  -3.814  -1.273  1.00  0.00     0.206 S 
ATOM     24  O   UNL     1      -2.434  -5.000  -0.440  1.00  0.00    -0.219 OA
ATOM     25  O   UNL     1      -3.385  -2.838  -1.308  1.00  0.00    -0.219 OA
BRANCH  23  26
ATOM     26  C   UNL     1      -2.007  -4.359  -2.931  1.00  0.00     0.072 A 
ATOM     27  C   UNL     1      -1.631  -5.685  -3.162  1.00  0.00     0.021 A 
ATOM     28  C   UNL     1      -2.207  -3.473  -3.994  1.00  0.00     0.021 A 
ATOM     29  C   UNL     1      -1.413  -6.117  -4.468  1.00  0.00     0.001 A 
ATOM     30  C   UNL     1      -1.985  -3.912  -5.298  1.00  0.00     0.001 A 
ATOM     31  C   UNL     1      -1.583  -5.228  -5.534  1.00  0.00     0.000 A 
ENDBRANCH  23  26
ENDBRANCH  17  23
ENDBRANCH   1  13
TORSDOF 6
ENDMDL
MODEL 13
REMARK VINA RESULT:    -6.586      3.654      7.098
REMARK INTER + INTRA:         -10.086
REMARK INTER:                  -9.044
REMARK INTRA:                  -1.042
REMARK UNBOUND:                -1.190
REMARK SMILES O=S(=O)(NC1CCNCC1)c1cc(S(=O)(=O)c2ccccc2)ccc1C(F)(F)F
REMARK SMILES IDX 2 1 1 2 3 3 4 4 5 6 6 7 7 8 8 9 10 10 9 11 11 13 25 14 12 15
REMARK SMILES IDX 24 16 13 17 23 18 26 19 27 20 28 21 29 22 14 23 15 24 16 25
REMARK SMILES IDX 17 26 18 27 22 28 19 29 21 30 20 31
REMARK H PARENT 4 5 8 12
ROOT
ATOM      1  S   UNL     1       1.407  -0.945   0.178  1.00  0.00     0.241 S 
ATOM      2  O   UNL     1       1.348  -0.400   1.518  1.00  0.00    -0.207 OA
ATOM      3  O   UNL     1       1.678  -0.094  -0.963  1.00  0.00    -0.207 OA
ENDROOT
BRANCH   1   4
ATOM      4  N   UNL     1       2.494  -2.234   0.192  1.00  0.00    -0.208 NA
ATOM      5  H   UNL     1       2.403  -2.834   1.013  1.00  0.00     0.141 HD
BRANCH   4   6
ATOM      6  C   UNL     1       3.857  -2.083  -0.389  1.00  0.00     0.072 C 
ATOM      7  C   UNL     1       3.892  -2.635  -1.824  1.00  0.00     0.035 C 
ATOM      8  C   UNL     1       3.790  -4.160  -1.848  1.00  0.00     0.082 C 
ATOM      9  N   UNL     1       4.815  -4.792  -1.015  1.00  0.00    -0.317 NA
ATOM     10  C   UNL     1       4.935  -2.785   0.423  1.00  0.00     0.035 C 
ATOM     11  C   UNL     1       4.783  -4.302   0.361  1.00  0.00     0.082 C 
ATOM     12  H   UNL     1       5.736  -4.603  -1.413  1.00  0.00     0.122 HD
ENDBRANCH   4   6
ENDBRANCH   1   4
BRANCH   1  13
ATOM     13  C   UNL     1      -0.166  -1.738  -0.165  1.00  0.00     0.096 A 
ATOM     14  C   UNL     1      -1.408  -1.123   0.079  1.00  0.00     0.076 A 
ATOM     15  C   UNL     1      -0.110  -3.018  -0.744  1.00  0.00     0.043 A 
ATOM     16  C   UNL     1      -2.581  -1.843  -0.257  1.00  0.00     0.016 A 
ATOM     17  C   UNL     1      -1.283  -3.658  -1.149  1.00  0.00     0.073 A 
ATOM     18  C   UNL     1      -2.524  -3.089  -0.884  1.00  0.00     0.021 A 
BRANCH  14  19
ATOM     19  C   UNL     1      -1.630   0.288   0.582  1.00  0.00     0.417 C 
ATOM     20  F   UNL     1      -1.164   0.569   1.821  1.00  0.00    -0.166 F 
ATOM     21  F   UNL     1      -0.981   1.184  -0.221  1.00  0.00    -0.166 F 
ATOM     22  F   UNL     1      -2.938   0.656   0.555  1.00  0.00    -0.166 F 
ENDBRANCH  14  19
BRANCH  17  23
ATOM     23  S   UNL     1      -1.151  -5.076  -2.218  1.00  0.00     0.206 S 
ATOM     24  O   UNL     1       0.263  -5.262  -2.508  1.00  0.00    -0.219 OA
ATOM     25  O   UNL     1      -1.905  -6.133  -1.573  1.00  0.00    -0.219 OA
BRANCH  23  26
ATOM     26  C   UNL     1      -1.956  -4.675  -3.744  1.00  0.00     0.072 A 
ATOM     27  C   UNL     1      -1.744  -3.423  -4.328  1.00  0.00     0.021 A 
ATOM     28  C   UNL     1      -2.745  -5.639  -4.379  1.00  0.00     0.021 A 
ATOM     29  C   UNL     1      -2.361  -3.119  -5.539  1.00  0.00     0.001 A 
ATOM     30  C   UNL     1      -3.361  -5.326  -5.590  1.00  0.00     0.001 A 
ATOM     31  C   UNL     1      -3.175  -4.067  -6.165  1.00  0.00     0.000 A 
ENDBRANCH  23  26
ENDBRANCH  17  23
ENDBRANCH   1  13
TORSDOF 6
ENDMDL
MODEL 14
REMARK VINA RESULT:    -6.558      2.295      2.912
REMARK INTER + INTRA:         -10.048
REMARK INTER:                 -10.163
REMARK INTRA:                   0.114
REMARK UNBOUND:                -1.190
REMARK SMILES O=S(=O)(NC1CCNCC1)c1cc(S(=O)(=O)c2ccccc2)ccc1C(F)(F)F
REMARK SMILES IDX 2 1 1 2 3 3 4 4 5 6 6 7 7 8 8 9 10 10 9 11 11 13 25 14 12 15
REMARK SMILES IDX 24 16 13 17 23 18 26 19 27 20 28 21 29 22 14 23 15 24 16 25
REMARK SMILES IDX 17 26 18 27 22 28 19 29 21 30 20 31
REMARK H PARENT 4 5 8 12
ROOT
ATOM      1  S   UNL     1       1.303  -0.747   0.260  1.00  0.00     0.241 S 
ATOM      2  O   UNL     1       1.454   0.109  -0.897  1.00  0.00    -0.207 OA
ATOM      3  O   UNL     1       1.950  -0.426   1.516  1.00  0.00    -0.207 OA
ENDROOT
BRANCH   1   4
ATOM      4  N   UNL     1      -0.347  -0.982   0.519  1.00  0.00    -0.208 NA
ATOM      5  H   UNL     1      -0.891  -1.032  -0.343  1.00  0.00     0.141 HD
BRANCH   4   6
ATOM      6  C   UNL     1      -1.018  -0.395   1.711  1.00  0.00     0.072 C 
ATOM      7  C   UNL     1      -2.514  -0.757   1.717  1.00  0.00     0.035 C 
ATOM      8  C   UNL     1      -3.281  -0.017   0.622  1.00  0.00     0.082 C 
ATOM      9  N   UNL     1      -3.090   1.433   0.702  1.00  0.00    -0.317 NA
ATOM     10  C   UNL     1      -0.891   1.119   1.785  1.00  0.00     0.035 C 
ATOM     11  C   UNL     1      -1.676   1.802   0.670  1.00  0.00     0.082 C 
ATOM     12  H   UNL     1      -3.505   1.780   1.567  1.00  0.00     0.122 HD
ENDBRANCH   4   6
ENDBRANCH   1   4
BRANCH   1  13
ATOM     13  C   UNL     1       1.886  -2.385  -0.186  1.00  0.00     0.096 A 
ATOM     14  C   UNL     1       1.123  -3.294  -0.944  1.00  0.00     0.076 A 
ATOM     15  C   UNL     1       3.188  -2.721   0.225  1.00  0.00     0.043 A 
ATOM     16  C   UNL     1       1.704  -4.549  -1.252  1.00  0.00     0.016 A 
ATOM     17  C   UNL     1       3.762  -3.928  -0.178  1.00  0.00     0.073 A 
ATOM     18  C   UNL     1       3.016  -4.859  -0.893  1.00  0.00     0.021 A 
BRANCH  14  19
ATOM     19  C   UNL     1      -0.237  -3.035  -1.556  1.00  0.00     0.417 C 
ATOM     20  F   UNL     1      -0.487  -1.769  -1.960  1.00  0.00    -0.166 F 
ATOM     21  F   UNL     1      -0.393  -3.777  -2.693  1.00  0.00    -0.166 F 
ATOM     22  F   UNL     1      -1.259  -3.402  -0.739  1.00  0.00    -0.166 F 
ENDBRANCH  14  19
BRANCH  17  23
ATOM     23  S   UNL     1       5.518  -4.142   0.024  1.00  0.00     0.206 S 
ATOM     24  O   UNL     1       5.997  -4.867  -1.144  1.00  0.00    -0.219 OA
ATOM     25  O   UNL     1       6.048  -2.827   0.330  1.00  0.00    -0.219 OA
BRANCH  23  26
ATOM     26  C   UNL     1       5.774  -5.183   1.434  1.00  0.00     0.072 A 
ATOM     27  C   UNL     1       6.281  -4.632   2.615  1.00  0.00     0.021 A 
ATOM     28  C   UNL     1       5.408  -6.531   1.370  1.00  0.00     0.021 A 
ATOM     29  C   UNL     1       6.460  -5.449   3.729  1.00  0.00     0.001 A 
ATOM     30  C   UNL     1       5.592  -7.342   2.489  1.00  0.00     0.001 A 
ATOM     31  C   UNL     1       6.123  -6.804   3.663  1.00  0.00     0.000 A 
ENDBRANCH  23  26
ENDBRANCH  17  23
ENDBRANCH   1  13
TORSDOF 6
ENDMDL
MODEL 15
REMARK VINA RESULT:    -6.524      3.484      5.976
REMARK INTER + INTRA:         -10.003
REMARK INTER:                  -8.753
REMARK INTRA:                  -1.250
REMARK UNBOUND:                -1.190
REMARK SMILES O=S(=O)(NC1CCNCC1)c1cc(S(=O)(=O)c2ccccc2)ccc1C(F)(F)F
REMARK SMILES IDX 2 1 1 2 3 3 4 4 5 6 6 7 7 8 8 9 10 10 9 11 11 13 25 14 12 15
REMARK SMILES IDX 24 16 13 17 23 18 26 19 27 20 28 21 29 22 14 23 15 24 16 25
REMARK SMILES IDX 17 26 18 27 22 28 19 29 21 30 20 31
REMARK H PARENT 4 5 8 12
ROOT
ATOM      1  S   UNL     1       3.093  -2.209  -0.313  1.00  0.00     0.241 S 
ATOM      2  O   UNL     1       3.701  -1.488  -1.411  1.00  0.00    -0.207 OA
ATOM      3  O   UNL     1       3.635  -2.124   1.028  1.00  0.00    -0.207 OA
ENDROOT
BRANCH   1   4
ATOM      4  N   UNL     1       1.452  -1.821  -0.285  1.00  0.00    -0.208 NA
ATOM      5  H   UNL     1       0.854  -2.553  -0.671  1.00  0.00     0.141 HD
BRANCH   4   6
ATOM      6  C   UNL     1       1.003  -0.413  -0.467  1.00  0.00     0.072 C 
ATOM      7  C   UNL     1       1.486   0.460   0.704  1.00  0.00     0.035 C 
ATOM      8  C   UNL     1       0.741   0.137   1.998  1.00  0.00     0.082 C 
ATOM      9  N   UNL     1      -0.711   0.233   1.834  1.00  0.00    -0.317 NA
ATOM     10  C   UNL     1      -0.509  -0.276  -0.575  1.00  0.00     0.035 C 
ATOM     11  C   UNL     1      -1.197  -0.610   0.744  1.00  0.00     0.082 C 
ATOM     12  H   UNL     1      -0.964   1.203   1.643  1.00  0.00     0.122 HD
ENDBRANCH   4   6
ENDBRANCH   1   4
BRANCH   1  13
ATOM     13  C   UNL     1       3.094  -3.954  -0.732  1.00  0.00     0.096 A 
ATOM     14  C   UNL     1       4.188  -4.805  -0.481  1.00  0.00     0.076 A 
ATOM     15  C   UNL     1       1.913  -4.466  -1.296  1.00  0.00     0.043 A 
ATOM     16  C   UNL     1       4.059  -6.171  -0.836  1.00  0.00     0.016 A 
ATOM     17  C   UNL     1       1.787  -5.833  -1.544  1.00  0.00     0.073 A 
ATOM     18  C   UNL     1       2.866  -6.688  -1.343  1.00  0.00     0.021 A 
BRANCH  14  19
ATOM     19  C   UNL     1       5.474  -4.433   0.225  1.00  0.00     0.417 C 
ATOM     20  F   UNL     1       5.392  -4.211   1.556  1.00  0.00    -0.166 F 
ATOM     21  F   UNL     1       6.384  -5.448   0.119  1.00  0.00    -0.166 F 
ATOM     22  F   UNL     1       6.078  -3.345  -0.323  1.00  0.00    -0.166 F 
ENDBRANCH  14  19
BRANCH  17  23
ATOM     23  S   UNL     1       0.166  -6.490  -1.882  1.00  0.00     0.206 S 
ATOM     24  O   UNL     1       0.229  -7.130  -3.188  1.00  0.00    -0.219 OA
ATOM     25  O   UNL     1      -0.202  -7.263  -0.712  1.00  0.00    -0.219 OA
BRANCH  23  26
ATOM     26  C   UNL     1      -0.951  -5.122  -2.016  1.00  0.00     0.072 A 
ATOM     27  C   UNL     1      -1.708  -4.739  -0.906  1.00  0.00     0.021 A 
ATOM     28  C   UNL     1      -1.015  -4.402  -3.213  1.00  0.00     0.021 A 
ATOM     29  C   UNL     1      -2.569  -3.648  -1.008  1.00  0.00     0.001 A 
ATOM     30  C   UNL     1      -1.881  -3.313  -3.308  1.00  0.00     0.001 A 
ATOM     31  C   UNL     1      -2.660  -2.942  -2.210  1.00  0.00     0.000 A 
ENDBRANCH  23  26
ENDBRANCH  17  23
ENDBRANCH   1  13
TORSDOF 6
ENDMDL
MODEL 16
REMARK VINA RESULT:    -6.499      3.413      5.197
REMARK INTER + INTRA:          -9.969
REMARK INTER:                  -8.936
REMARK INTRA:                  -1.033
REMARK UNBOUND:                -1.190
REMARK SMILES O=S(=O)(NC1CCNCC1)c1cc(S(=O)(=O)c2ccccc2)ccc1C(F)(F)F
REMARK SMILES IDX 2 1 1 2 3 3 4 4 5 6 6 7 7 8 8 9 10 10 9 11 11 13 25 14 12 15
REMARK SMILES IDX 24 16 13 17 23 18 26 19 27 20 28 21 29 22 14 23 15 24 16 25
REMARK SMILES IDX 17 26 18 27 22 28 19 29 21 30 20 31
REMARK H PARENT 4 5 8 12
ROOT
ATOM      1  S   UNL     1      -0.638  -2.459  -1.180  1.00  0.00     0.241 S 
ATOM      2  O   UNL     1      -0.798  -1.077  -1.579  1.00  0.00    -0.207 OA
ATOM      3  O   UNL     1      -1.410  -3.015  -0.087  1.00  0.00    -0.207 OA
ENDROOT
BRANCH   1   4
ATOM      4  N   UNL     1      -0.830  -3.419  -2.553  1.00  0.00    -0.208 NA
ATOM      5  H   UNL     1       0.053  -3.688  -2.988  1.00  0.00     0.141 HD
BRANCH   4   6
ATOM      6  C   UNL     1      -1.999  -3.227  -3.455  1.00  0.00     0.072 C 
ATOM      7  C   UNL     1      -3.300  -3.632  -2.741  1.00  0.00     0.035 C 
ATOM      8  C   UNL     1      -3.393  -5.145  -2.547  1.00  0.00     0.082 C 
ATOM      9  N   UNL     1      -3.238  -5.871  -3.809  1.00  0.00    -0.317 NA
ATOM     10  C   UNL     1      -1.894  -4.022  -4.748  1.00  0.00     0.035 C 
ATOM     11  C   UNL     1      -1.994  -5.522  -4.493  1.00  0.00     0.082 C 
ATOM     12  H   UNL     1      -4.025  -5.655  -4.421  1.00  0.00     0.122 HD
ENDBRANCH   4   6
ENDBRANCH   1   4
BRANCH   1  13
ATOM     13  C   UNL     1       1.084  -2.710  -0.741  1.00  0.00     0.096 A 
ATOM     14  C   UNL     1       1.796  -1.843   0.110  1.00  0.00     0.076 A 
ATOM     15  C   UNL     1       1.702  -3.862  -1.258  1.00  0.00     0.043 A 
ATOM     16  C   UNL     1       3.146  -2.162   0.401  1.00  0.00     0.016 A 
ATOM     17  C   UNL     1       3.002  -4.194  -0.874  1.00  0.00     0.073 A 
ATOM     18  C   UNL     1       3.740  -3.335  -0.067  1.00  0.00     0.021 A 
BRANCH  14  19
ATOM     19  C   UNL     1       1.239  -0.636   0.835  1.00  0.00     0.417 C 
ATOM     20  F   UNL     1       0.020  -0.782   1.404  1.00  0.00    -0.166 F 
ATOM     21  F   UNL     1       2.050  -0.298   1.882  1.00  0.00    -0.166 F 
ATOM     22  F   UNL     1       1.182   0.470   0.048  1.00  0.00    -0.166 F 
ENDBRANCH  14  19
BRANCH  17  23
ATOM     23  S   UNL     1       3.599  -5.835  -1.228  1.00  0.00     0.206 S 
ATOM     24  O   UNL     1       3.603  -6.568   0.030  1.00  0.00    -0.219 OA
ATOM     25  O   UNL     1       2.809  -6.314  -2.345  1.00  0.00    -0.219 OA
BRANCH  23  26
ATOM     26  C   UNL     1       5.282  -5.690  -1.762  1.00  0.00     0.072 A 
ATOM     27  C   UNL     1       6.305  -6.217  -0.968  1.00  0.00     0.021 A 
ATOM     28  C   UNL     1       5.562  -5.107  -3.001  1.00  0.00     0.021 A 
ATOM     29  C   UNL     1       7.625  -6.121  -1.402  1.00  0.00     0.001 A 
ATOM     30  C   UNL     1       6.886  -5.013  -3.427  1.00  0.00     0.001 A 
ATOM     31  C   UNL     1       7.915  -5.513  -2.626  1.00  0.00     0.000 A 
ENDBRANCH  23  26
ENDBRANCH  17  23
ENDBRANCH   1  13
TORSDOF 6
ENDMDL
MODEL 17
REMARK VINA RESULT:    -6.394      4.371      7.559
REMARK INTER + INTRA:          -9.826
REMARK INTER:                  -9.404
REMARK INTRA:                  -0.422
REMARK UNBOUND:                -1.190
REMARK SMILES O=S(=O)(NC1CCNCC1)c1cc(S(=O)(=O)c2ccccc2)ccc1C(F)(F)F
REMARK SMILES IDX 2 1 1 2 3 3 4 4 5 6 6 7 7 8 8 9 10 10 9 11 11 13 25 14 12 15
REMARK SMILES IDX 24 16 13 17 23 18 26 19 27 20 28 21 29 22 14 23 15 24 16 25
REMARK SMILES IDX 17 26 18 27 22 28 19 29 21 30 20 31
REMARK H PARENT 4 5 8 12
ROOT
ATOM      1  S   UNL     1       5.570  -5.041  -2.780  1.00  0.00     0.241 S 
ATOM      2  O   UNL     1       6.471  -6.108  -2.403  1.00  0.00    -0.207 OA
ATOM      3  O   UNL     1       5.960  -4.044  -3.756  1.00  0.00    -0.207 OA
ENDROOT
BRANCH   1   4
ATOM      4  N   UNL     1       4.105  -5.739  -3.240  1.00  0.00    -0.208 NA
ATOM      5  H   UNL     1       3.469  -5.085  -3.698  1.00  0.00     0.141 HD
BRANCH   4   6
ATOM      6  C   UNL     1       3.492  -6.822  -2.423  1.00  0.00     0.072 C 
ATOM      7  C   UNL     1       2.994  -7.962  -3.329  1.00  0.00     0.035 C 
ATOM      8  C   UNL     1       1.766  -7.548  -4.138  1.00  0.00     0.082 C 
ATOM      9  N   UNL     1       0.688  -7.047  -3.282  1.00  0.00    -0.317 NA
ATOM     10  C   UNL     1       2.326  -6.342  -1.571  1.00  0.00     0.035 C 
ATOM     11  C   UNL     1       1.131  -5.945  -2.431  1.00  0.00     0.082 C 
ATOM     12  H   UNL     1       0.347  -7.806  -2.692  1.00  0.00     0.122 HD
ENDBRANCH   4   6
ENDBRANCH   1   4
BRANCH   1  13
ATOM     13  C   UNL     1       5.142  -4.129  -1.294  1.00  0.00     0.096 A 
ATOM     14  C   UNL     1       5.804  -4.306  -0.064  1.00  0.00     0.076 A 
ATOM     15  C   UNL     1       4.119  -3.172  -1.418  1.00  0.00     0.043 A 
ATOM     16  C   UNL     1       5.389  -3.509   1.031  1.00  0.00     0.016 A 
ATOM     17  C   UNL     1       3.803  -2.340  -0.343  1.00  0.00     0.073 A 
ATOM     18  C   UNL     1       4.414  -2.521   0.893  1.00  0.00     0.021 A 
BRANCH  14  19
ATOM     19  C   UNL     1       6.995  -5.205   0.195  1.00  0.00     0.417 C 
ATOM     20  F   UNL     1       8.072  -5.027  -0.603  1.00  0.00    -0.166 F 
ATOM     21  F   UNL     1       7.482  -4.993   1.454  1.00  0.00    -0.166 F 
ATOM     22  F   UNL     1       6.677  -6.525   0.145  1.00  0.00    -0.166 F 
ENDBRANCH  14  19
BRANCH  17  23
ATOM     23  S   UNL     1       2.798  -0.902  -0.650  1.00  0.00     0.206 S 
ATOM     24  O   UNL     1       3.150   0.088   0.357  1.00  0.00    -0.219 OA
ATOM     25  O   UNL     1       2.960  -0.595  -2.058  1.00  0.00    -0.219 OA
BRANCH  23  26
ATOM     26  C   UNL     1       1.108  -1.358  -0.375  1.00  0.00     0.072 A 
ATOM     27  C   UNL     1       0.266  -0.493   0.329  1.00  0.00     0.021 A 
ATOM     28  C   UNL     1       0.621  -2.550  -0.920  1.00  0.00     0.021 A 
ATOM     29  C   UNL     1      -1.068  -0.845   0.525  1.00  0.00     0.001 A 
ATOM     30  C   UNL     1      -0.715  -2.896  -0.718  1.00  0.00     0.001 A 
ATOM     31  C   UNL     1      -1.554  -2.049   0.008  1.00  0.00     0.000 A 
ENDBRANCH  23  26
ENDBRANCH  17  23
ENDBRANCH   1  13
TORSDOF 6
ENDMDL
MODEL 18
REMARK VINA RESULT:    -6.365      5.123      7.155
REMARK INTER + INTRA:          -9.787
REMARK INTER:                  -9.006
REMARK INTRA:                  -0.781
REMARK UNBOUND:                -1.190
REMARK SMILES O=S(=O)(NC1CCNCC1)c1cc(S(=O)(=O)c2ccccc2)ccc1C(F)(F)F
REMARK SMILES IDX 2 1 1 2 3 3 4 4 5 6 6 7 7 8 8 9 10 10 9 11 11 13 25 14 12 15
REMARK SMILES IDX 24 16 13 17 23 18 26 19 27 20 28 21 29 22 14 23 15 24 16 25
REMARK SMILES IDX 17 26 18 27 22 28 19 29 21 30 20 31
REMARK H PARENT 4 5 8 12
ROOT
ATOM      1  S   UNL     1       5.462  -5.132  -2.707  1.00  0.00     0.241 S 
ATOM      2  O   UNL     1       6.234  -6.354  -2.763  1.00  0.00    -0.207 OA
ATOM      3  O   UNL     1       5.741  -4.030  -3.606  1.00  0.00    -0.207 OA
ENDROOT
BRANCH   1   4
ATOM      4  N   UNL     1       3.830  -5.546  -2.810  1.00  0.00    -0.208 NA
ATOM      5  H   UNL     1       3.205  -4.739  -2.810  1.00  0.00     0.141 HD
BRANCH   4   6
ATOM      6  C   UNL     1       3.324  -6.795  -2.178  1.00  0.00     0.072 C 
ATOM      7  C   UNL     1       2.847  -7.786  -3.254  1.00  0.00     0.035 C 
ATOM      8  C   UNL     1       1.556  -7.317  -3.924  1.00  0.00     0.082 C 
ATOM      9  N   UNL     1       0.497  -7.049  -2.949  1.00  0.00    -0.317 NA
ATOM     10  C   UNL     1       2.178  -6.553  -1.207  1.00  0.00     0.035 C 
ATOM     11  C   UNL     1       0.919  -6.089  -1.931  1.00  0.00     0.082 C 
ATOM     12  H   UNL     1       0.232  -7.923  -2.492  1.00  0.00     0.122 HD
ENDBRANCH   4   6
ENDBRANCH   1   4
BRANCH   1  13
ATOM     13  C   UNL     1       5.611  -4.459  -1.050  1.00  0.00     0.096 A 
ATOM     14  C   UNL     1       4.877  -3.345  -0.601  1.00  0.00     0.076 A 
ATOM     15  C   UNL     1       6.483  -5.132  -0.175  1.00  0.00     0.043 A 
ATOM     16  C   UNL     1       5.065  -2.923   0.738  1.00  0.00     0.016 A 
ATOM     17  C   UNL     1       6.571  -4.747   1.163  1.00  0.00     0.073 A 
ATOM     18  C   UNL     1       5.887  -3.626   1.621  1.00  0.00     0.021 A 
BRANCH  14  19
ATOM     19  C   UNL     1       3.819  -2.593  -1.380  1.00  0.00     0.417 C 
ATOM     20  F   UNL     1       4.080  -2.361  -2.687  1.00  0.00    -0.166 F 
ATOM     21  F   UNL     1       2.652  -3.304  -1.402  1.00  0.00    -0.166 F 
ATOM     22  F   UNL     1       3.504  -1.396  -0.818  1.00  0.00    -0.166 F 
ENDBRANCH  14  19
BRANCH  17  23
ATOM     23  S   UNL     1       7.369  -5.849   2.313  1.00  0.00     0.206 S 
ATOM     24  O   UNL     1       7.902  -6.960   1.540  1.00  0.00    -0.219 OA
ATOM     25  O   UNL     1       8.258  -5.022   3.106  1.00  0.00    -0.219 OA
BRANCH  23  26
ATOM     26  C   UNL     1       6.119  -6.502   3.386  1.00  0.00     0.072 A 
ATOM     27  C   UNL     1       5.995  -6.002   4.685  1.00  0.00     0.021 A 
ATOM     28  C   UNL     1       5.230  -7.466   2.899  1.00  0.00     0.021 A 
ATOM     29  C   UNL     1       4.998  -6.502   5.519  1.00  0.00     0.001 A 
ATOM     30  C   UNL     1       4.236  -7.962   3.741  1.00  0.00     0.001 A 
ATOM     31  C   UNL     1       4.124  -7.487   5.049  1.00  0.00     0.000 A 
ENDBRANCH  23  26
ENDBRANCH  17  23
ENDBRANCH   1  13
TORSDOF 6
ENDMDL
MODEL 19
REMARK VINA RESULT:    -6.324      3.347      6.194
REMARK INTER + INTRA:          -9.732
REMARK INTER:                  -8.866
REMARK INTRA:                  -0.866
REMARK UNBOUND:                -1.190
REMARK SMILES O=S(=O)(NC1CCNCC1)c1cc(S(=O)(=O)c2ccccc2)ccc1C(F)(F)F
REMARK SMILES IDX 2 1 1 2 3 3 4 4 5 6 6 7 7 8 8 9 10 10 9 11 11 13 25 14 12 15
REMARK SMILES IDX 24 16 13 17 23 18 26 19 27 20 28 21 29 22 14 23 15 24 16 25
REMARK SMILES IDX 17 26 18 27 22 28 19 29 21 30 20 31
REMARK H PARENT 4 5 8 12
ROOT
ATOM      1  S   UNL     1       3.132  -2.131  -0.163  1.00  0.00     0.241 S 
ATOM      2  O   UNL     1       3.625  -1.207  -1.162  1.00  0.00    -0.207 OA
ATOM      3  O   UNL     1       3.957  -2.527   0.960  1.00  0.00    -0.207 OA
ENDROOT
BRANCH   1   4
ATOM      4  N   UNL     1       1.654  -1.545   0.400  1.00  0.00    -0.208 NA
ATOM      5  H   UNL     1       0.949  -2.273   0.525  1.00  0.00     0.141 HD
BRANCH   4   6
ATOM      6  C   UNL     1       1.171  -0.196  -0.002  1.00  0.00     0.072 C 
ATOM      7  C   UNL     1       1.034   0.715   1.231  1.00  0.00     0.035 C 
ATOM      8  C   UNL     1      -0.138   0.295   2.118  1.00  0.00     0.082 C 
ATOM      9  N   UNL     1      -1.395   0.229   1.370  1.00  0.00    -0.317 NA
ATOM     10  C   UNL     1      -0.167  -0.229  -0.725  1.00  0.00     0.035 C 
ATOM     11  C   UNL     1      -1.297  -0.652   0.208  1.00  0.00     0.082 C 
ATOM     12  H   UNL     1      -1.650   1.166   1.056  1.00  0.00     0.122 HD
ENDBRANCH   4   6
ENDBRANCH   1   4
BRANCH   1  13
ATOM     13  C   UNL     1       2.678  -3.655  -0.997  1.00  0.00     0.096 A 
ATOM     14  C   UNL     1       3.575  -4.723  -1.192  1.00  0.00     0.076 A 
ATOM     15  C   UNL     1       1.343  -3.764  -1.424  1.00  0.00     0.043 A 
ATOM     16  C   UNL     1       3.091  -5.883  -1.845  1.00  0.00     0.016 A 
ATOM     17  C   UNL     1       0.877  -4.957  -1.976  1.00  0.00     0.073 A 
ATOM     18  C   UNL     1       1.751  -6.012  -2.216  1.00  0.00     0.021 A 
BRANCH  14  19
ATOM     19  C   UNL     1       5.000  -4.803  -0.688  1.00  0.00     0.417 C 
ATOM     20  F   UNL     1       5.163  -4.928   0.649  1.00  0.00    -0.166 F 
ATOM     21  F   UNL     1       5.621  -5.910  -1.197  1.00  0.00    -0.166 F 
ATOM     22  F   UNL     1       5.758  -3.747  -1.084  1.00  0.00    -0.166 F 
ENDBRANCH  14  19
BRANCH  17  23
ATOM     23  S   UNL     1      -0.882  -5.190  -2.136  1.00  0.00     0.206 S 
ATOM     24  O   UNL     1      -1.146  -6.605  -1.921  1.00  0.00    -0.219 OA
ATOM     25  O   UNL     1      -1.495  -4.197  -1.275  1.00  0.00    -0.219 OA
BRANCH  23  26
ATOM     26  C   UNL     1      -1.323  -4.817  -3.811  1.00  0.00     0.072 A 
ATOM     27  C   UNL     1      -1.089  -5.764  -4.813  1.00  0.00     0.021 A 
ATOM     28  C   UNL     1      -1.957  -3.606  -4.102  1.00  0.00     0.021 A 
ATOM     29  C   UNL     1      -1.457  -5.477  -6.125  1.00  0.00     0.001 A 
ATOM     30  C   UNL     1      -2.321  -3.325  -5.418  1.00  0.00     0.001 A 
ATOM     31  C   UNL     1      -2.065  -4.255  -6.428  1.00  0.00     0.000 A 
ENDBRANCH  23  26
ENDBRANCH  17  23
ENDBRANCH   1  13
TORSDOF 6
ENDMDL
MODEL 20
REMARK VINA RESULT:    -6.279      3.388      5.731
REMARK INTER + INTRA:          -9.672
REMARK INTER:                  -8.447
REMARK INTRA:                  -1.225
REMARK UNBOUND:                -1.190
REMARK SMILES O=S(=O)(NC1CCNCC1)c1cc(S(=O)(=O)c2ccccc2)ccc1C(F)(F)F
REMARK SMILES IDX 2 1 1 2 3 3 4 4 5 6 6 7 7 8 8 9 10 10 9 11 11 13 25 14 12 15
REMARK SMILES IDX 24 16 13 17 23 18 26 19 27 20 28 21 29 22 14 23 15 24 16 25
REMARK SMILES IDX 17 26 18 27 22 28 19 29 21 30 20 31
REMARK H PARENT 4 5 8 12
ROOT
ATOM      1  S   UNL     1      -0.755  -2.432  -1.231  1.00  0.00     0.241 S 
ATOM      2  O   UNL     1      -1.058  -1.049  -1.531  1.00  0.00    -0.207 OA
ATOM      3  O   UNL     1      -1.458  -3.139  -0.180  1.00  0.00    -0.207 OA
ENDROOT
BRANCH   1   4
ATOM      4  N   UNL     1      -0.857  -3.308  -2.668  1.00  0.00    -0.208 NA
ATOM      5  H   UNL     1      -0.349  -2.879  -3.443  1.00  0.00     0.141 HD
BRANCH   4   6
ATOM      6  C   UNL     1      -2.090  -4.070  -3.005  1.00  0.00     0.072 C 
ATOM      7  C   UNL     1      -1.730  -5.474  -3.521  1.00  0.00     0.035 C 
ATOM      8  C   UNL     1      -1.094  -5.422  -4.909  1.00  0.00     0.082 C 
ATOM      9  N   UNL     1      -1.935  -4.708  -5.872  1.00  0.00    -0.317 NA
ATOM     10  C   UNL     1      -2.952  -3.381  -4.052  1.00  0.00     0.035 C 
ATOM     11  C   UNL     1      -2.268  -3.360  -5.415  1.00  0.00     0.082 C 
ATOM     12  H   UNL     1      -2.798  -5.232  -6.019  1.00  0.00     0.122 HD
ENDBRANCH   4   6
ENDBRANCH   1   4
BRANCH   1  13
ATOM     13  C   UNL     1       0.987  -2.536  -0.809  1.00  0.00     0.096 A 
ATOM     14  C   UNL     1       1.612  -1.665   0.103  1.00  0.00     0.076 A 
ATOM     15  C   UNL     1       1.717  -3.578  -1.409  1.00  0.00     0.043 A 
ATOM     16  C   UNL     1       2.989  -1.864   0.371  1.00  0.00     0.016 A 
ATOM     17  C   UNL     1       3.046  -3.802  -1.049  1.00  0.00     0.073 A 
ATOM     18  C   UNL     1       3.698  -2.932  -0.181  1.00  0.00     0.021 A 
BRANCH  14  19
ATOM     19  C   UNL     1       0.939  -0.578   0.914  1.00  0.00     0.417 C 
ATOM     20  F   UNL     1       0.628   0.563   0.258  1.00  0.00    -0.166 F 
ATOM     21  F   UNL     1      -0.264  -1.019   1.390  1.00  0.00    -0.166 F 
ATOM     22  F   UNL     1       1.656  -0.222   2.013  1.00  0.00    -0.166 F 
ENDBRANCH  14  19
BRANCH  17  23
ATOM     23  S   UNL     1       3.806  -5.342  -1.521  1.00  0.00     0.206 S 
ATOM     24  O   UNL     1       4.531  -5.098  -2.759  1.00  0.00    -0.219 OA
ATOM     25  O   UNL     1       4.514  -5.814  -0.346  1.00  0.00    -0.219 OA
BRANCH  23  26
ATOM     26  C   UNL     1       2.509  -6.492  -1.884  1.00  0.00     0.072 A 
ATOM     27  C   UNL     1       1.698  -6.966  -0.849  1.00  0.00     0.021 A 
ATOM     28  C   UNL     1       2.271  -6.864  -3.211  1.00  0.00     0.021 A 
ATOM     29  C   UNL     1       0.664  -7.853  -1.141  1.00  0.00     0.001 A 
ATOM     30  C   UNL     1       1.236  -7.754  -3.494  1.00  0.00     0.001 A 
ATOM     31  C   UNL     1       0.439  -8.252  -2.461  1.00  0.00     0.000 A 
ENDBRANCH  23  26
ENDBRANCH  17  23
ENDBRANCH   1  13
TORSDOF 6
ENDMDL
