MODEL 1
REMARK VINA RESULT:    -6.598      0.000      0.000
REMARK INTER + INTRA:         -17.353
REMARK INTER:                 -12.769
REMARK INTRA:                  -4.584
REMARK UNBOUND:                -4.584
REMARK SMILES CN(C)CC#Cc1ccc(OCCCc2sc(N3CCc4cccc(C(=O)Nc5nc6ccccc6s5)c4C3)nc2C(=O)OC2O[C@H](CO)[C@H](O)[C@@H](O)[C@@H]2O)c(F)c1
REMARK SMILES IDX 14 1 13 2 12 3 11 4 10 5 6 6 7 7 8 8 58 9 9 10 56 11 57 12
REMARK SMILES IDX 5 13 4 14 2 15 1 16 3 17 15 18 16 19 41 20 17 21 40 22 42 23
REMARK SMILES IDX 43 24 44 25 45 26 46 27 54 28 47 29 52 30 50 31 55 32 48 34
REMARK SMILES IDX 49 35 53 37 51 39 18 41 19 42 39 43 20 44 38 45 21 46 25 47
REMARK SMILES IDX 22 48 24 49 23 50 26 51 27 52 28 53 29 55 30 56 37 57 31 58
REMARK SMILES IDX 36 59 32 60 35 61 33 62 34 63
REMARK H PARENT 55 33 49 36 53 38 51 40 28 54
ROOT
ATOM      1  C   UNL     1      -6.615  -7.520   9.589  1.00  0.00     0.053 C 
ENDROOT
BRANCH   1   2
ATOM      2  C   UNL     1      -7.407  -7.519  10.905  1.00  0.00     0.047 C 
BRANCH   2   3
ATOM      3  C   UNL     1      -8.706  -6.718  10.799  1.00  0.00     0.230 C 
BRANCH   3   4
ATOM      4  O   UNL     1      -9.849  -7.532  11.088  1.00  0.00    -0.491 OA
BRANCH   4   5
ATOM      5  C   UNL     1     -10.420  -8.235  10.058  1.00  0.00     0.155 A 
ATOM      6  C   UNL     1     -12.168 -10.713   7.106  1.00  0.00    -0.066 C 
ATOM      7  C   UNL     1     -11.561  -9.880   8.099  1.00  0.00     0.028 A 
ATOM      8  C   UNL     1     -11.746  -8.494   8.050  1.00  0.00     0.021 A 
ATOM      9  C   UNL     1     -10.774 -10.450   9.101  1.00  0.00     0.060 A 
ATOM     10  C   UNL     1     -11.201  -7.680   9.040  1.00  0.00     0.051 A 
ATOM     11  C   UNL     1     -10.232  -9.627  10.082  1.00  0.00     0.166 A 
ATOM     12  F   UNL     1      -9.491 -10.200  11.040  1.00  0.00    -0.203 F 
BRANCH   6  13
ATOM     13  C   UNL     1     -12.769 -11.437   6.358  1.00  0.00    -0.082 C 
ATOM     14  C   UNL     1     -13.558 -12.421   5.608  1.00  0.00     0.174 C 
BRANCH  14  15
ATOM     15  N   UNL     1     -14.947 -12.596   6.073  1.00  0.00    -0.299 NA
ATOM     16  C   UNL     1     -15.721 -11.368   6.041  1.00  0.00     0.106 C 
ATOM     17  C   UNL     1     -15.002 -13.209   7.427  1.00  0.00     0.106 C 
ENDBRANCH  14  15
ENDBRANCH   6  13
ENDBRANCH   4   5
ENDBRANCH   3   4
ENDBRANCH   2   3
ENDBRANCH   1   2
BRANCH   1  18
ATOM     18  C   UNL     1      -5.921  -6.252   9.154  1.00  0.00     0.042 A 
ATOM     19  S   UNL     1      -4.489  -5.688   9.897  1.00  0.00    -0.101 S 
ATOM     20  C   UNL     1      -6.253  -5.434   8.097  1.00  0.00     0.164 A 
ATOM     21  C   UNL     1      -4.374  -4.396   8.743  1.00  0.00     0.186 A 
ATOM     22  N   UNL     1      -5.406  -4.340   7.904  1.00  0.00    -0.213 NA
BRANCH  20  23
ATOM     23  C   UNL     1      -7.379  -5.725   7.170  1.00  0.00     0.360 C 
ATOM     24  O   UNL     1      -8.559  -5.593   7.452  1.00  0.00    -0.244 OA
BRANCH  23  25
ATOM     25  O   UNL     1      -6.906  -6.178   5.972  1.00  0.00    -0.428 OA
BRANCH  25  26
ATOM     26  C   UNL     1      -6.934  -7.594   5.819  1.00  0.00     0.343 C 
ATOM     27  O   UNL     1      -5.644  -8.125   5.431  1.00  0.00    -0.332 OA
ATOM     28  C   UNL     1      -7.974  -7.999   4.777  1.00  0.00     0.214 C 
ATOM     29  C   UNL     1      -5.125  -7.688   4.160  1.00  0.00     0.179 C 
ATOM     30  C   UNL     1      -7.556  -7.496   3.394  1.00  0.00     0.180 C 
ATOM     31  C   UNL     1      -6.125  -7.963   3.040  1.00  0.00     0.177 C 
BRANCH  28  32
ATOM     32  O   UNL     1      -9.306  -7.551   5.089  1.00  0.00    -0.384 OA
ATOM     33  H   UNL     1      -9.206  -6.626   5.400  1.00  0.00     0.211 HD
ENDBRANCH  28  32
BRANCH  29  34
ATOM     34  C   UNL     1      -4.618  -6.234   4.187  1.00  0.00     0.191 C 
BRANCH  34  35
ATOM     35  O   UNL     1      -4.011  -5.935   5.445  1.00  0.00    -0.394 OA
ATOM     36  H   UNL     1      -3.261  -6.539   5.580  1.00  0.00     0.210 HD
ENDBRANCH  34  35
ENDBRANCH  29  34
BRANCH  30  37
ATOM     37  O   UNL     1      -8.541  -8.012   2.470  1.00  0.00    -0.387 OA
ATOM     38  H   UNL     1      -8.085  -8.117   1.609  1.00  0.00     0.211 HD
ENDBRANCH  30  37
BRANCH  31  39
ATOM     39  O   UNL     1      -5.710  -7.386   1.812  1.00  0.00    -0.387 OA
ATOM     40  H   UNL     1      -5.923  -7.996   1.071  1.00  0.00     0.211 HD
ENDBRANCH  31  39
ENDBRANCH  25  26
ENDBRANCH  23  25
ENDBRANCH  20  23
BRANCH  21  41
ATOM     41  N   UNL     1      -3.337  -3.496   8.707  1.00  0.00    -0.343 N 
ATOM     42  C   UNL     1      -2.237  -3.677   9.642  1.00  0.00     0.124 C 
ATOM     43  C   UNL     1      -2.913  -2.816   7.477  1.00  0.00     0.155 C 
ATOM     44  C   UNL     1      -1.174  -4.620   9.065  1.00  0.00     0.057 C 
ATOM     45  C   UNL     1      -1.752  -3.526   6.806  1.00  0.00    -0.013 A 
ATOM     46  C   UNL     1      -0.875  -4.335   7.604  1.00  0.00    -0.040 A 
ATOM     47  C   UNL     1      -1.467  -3.354   5.425  1.00  0.00     0.045 A 
ATOM     48  C   UNL     1       0.240  -4.952   7.041  1.00  0.00     0.004 A 
ATOM     49  C   UNL     1      -0.307  -3.974   4.901  1.00  0.00     0.014 A 
ATOM     50  C   UNL     1       0.543  -4.759   5.700  1.00  0.00     0.001 A 
BRANCH  47  51
ATOM     51  C   UNL     1      -2.330  -2.482   4.552  1.00  0.00     0.257 C 
ATOM     52  O   UNL     1      -1.914  -1.384   4.254  1.00  0.00    -0.269 OA
ATOM     53  N   UNL     1      -3.504  -3.064   4.126  1.00  0.00    -0.298 N 
ATOM     54  H   UNL     1      -3.644  -4.055   4.221  1.00  0.00     0.172 HD
BRANCH  53  55
ATOM     55  C   UNL     1      -4.254  -2.523   3.134  1.00  0.00     0.190 A 
ATOM     56  N   UNL     1      -3.971  -2.433   1.853  1.00  0.00    -0.220 NA
ATOM     57  S   UNL     1      -5.772  -1.915   3.657  1.00  0.00    -0.097 S 
ATOM     58  C   UNL     1      -5.059  -1.863   1.203  1.00  0.00     0.084 A 
ATOM     59  C   UNL     1      -6.157  -1.544   2.009  1.00  0.00     0.056 A 
ATOM     60  C   UNL     1      -5.154  -1.587  -0.192  1.00  0.00     0.030 A 
ATOM     61  C   UNL     1      -7.350  -0.980   1.492  1.00  0.00     0.021 A 
ATOM     62  C   UNL     1      -6.344  -1.048  -0.745  1.00  0.00     0.002 A 
ATOM     63  C   UNL     1      -7.423  -0.773   0.102  1.00  0.00     0.002 A 
ENDBRANCH  53  55
ENDBRANCH  47  51
ENDBRANCH  21  41
ENDBRANCH   1  18
TORSDOF 18
ENDMDL
MODEL 2
REMARK VINA RESULT:    -6.468      4.328      8.410
REMARK INTER + INTRA:         -17.101
REMARK INTER:                 -11.059
REMARK INTRA:                  -6.042
REMARK UNBOUND:                -4.584
REMARK SMILES CN(C)CC#Cc1ccc(OCCCc2sc(N3CCc4cccc(C(=O)Nc5nc6ccccc6s5)c4C3)nc2C(=O)OC2O[C@H](CO)[C@H](O)[C@@H](O)[C@@H]2O)c(F)c1
REMARK SMILES IDX 14 1 13 2 12 3 11 4 10 5 6 6 7 7 8 8 58 9 9 10 56 11 57 12
REMARK SMILES IDX 5 13 4 14 2 15 1 16 3 17 15 18 16 19 41 20 17 21 40 22 42 23
REMARK SMILES IDX 43 24 44 25 45 26 46 27 54 28 47 29 52 30 50 31 55 32 48 34
REMARK SMILES IDX 49 35 53 37 51 39 18 41 19 42 39 43 20 44 38 45 21 46 25 47
REMARK SMILES IDX 22 48 24 49 23 50 26 51 27 52 28 53 29 55 30 56 37 57 31 58
REMARK SMILES IDX 36 59 32 60 35 61 33 62 34 63
REMARK H PARENT 55 33 49 36 53 38 51 40 28 54
ROOT
ATOM      1  C   UNL     1      -7.306  -9.127  10.606  1.00  0.00     0.053 C 
ENDROOT
BRANCH   1   2
ATOM      2  C   UNL     1      -7.759  -7.669  10.435  1.00  0.00     0.047 C 
BRANCH   2   3
ATOM      3  C   UNL     1      -7.451  -7.126   9.039  1.00  0.00     0.230 C 
BRANCH   3   4
ATOM      4  O   UNL     1      -8.640  -6.676   8.378  1.00  0.00    -0.491 OA
BRANCH   4   5
ATOM      5  C   UNL     1      -9.527  -7.619   7.926  1.00  0.00     0.155 A 
ATOM      6  C   UNL     1     -12.535 -10.342   6.723  1.00  0.00    -0.066 C 
ATOM      7  C   UNL     1     -11.515  -9.431   7.145  1.00  0.00     0.028 A 
ATOM      8  C   UNL     1     -10.340  -9.310   6.397  1.00  0.00     0.021 A 
ATOM      9  C   UNL     1     -11.690  -8.678   8.309  1.00  0.00     0.060 A 
ATOM     10  C   UNL     1      -9.364  -8.390   6.770  1.00  0.00     0.051 A 
ATOM     11  C   UNL     1     -10.706  -7.765   8.673  1.00  0.00     0.166 A 
ATOM     12  F   UNL     1     -10.903  -7.047   9.787  1.00  0.00    -0.203 F 
BRANCH   6  13
ATOM     13  C   UNL     1     -13.451 -11.007   6.320  1.00  0.00    -0.082 C 
ATOM     14  C   UNL     1     -14.463 -11.976   5.883  1.00  0.00     0.174 C 
BRANCH  14  15
ATOM     15  N   UNL     1     -14.862 -12.966   6.902  1.00  0.00    -0.299 NA
ATOM     16  C   UNL     1     -13.764 -13.802   7.351  1.00  0.00     0.106 C 
ATOM     17  C   UNL     1     -15.999 -13.805   6.439  1.00  0.00     0.106 C 
ENDBRANCH  14  15
ENDBRANCH   6  13
ENDBRANCH   4   5
ENDBRANCH   3   4
ENDBRANCH   2   3
ENDBRANCH   1   2
BRANCH   1  18
ATOM     18  C   UNL     1      -7.774 -10.158   9.608  1.00  0.00     0.042 A 
ATOM     19  S   UNL     1      -6.846 -10.600   8.243  1.00  0.00    -0.101 S 
ATOM     20  C   UNL     1      -8.912 -10.930   9.670  1.00  0.00     0.164 A 
ATOM     21  C   UNL     1      -8.004 -11.825   7.825  1.00  0.00     0.186 A 
ATOM     22  N   UNL     1      -9.073 -11.835   8.618  1.00  0.00    -0.213 NA
BRANCH  20  23
ATOM     23  C   UNL     1      -9.867 -10.875  10.808  1.00  0.00     0.360 C 
ATOM     24  O   UNL     1     -10.320  -9.846  11.282  1.00  0.00    -0.244 OA
BRANCH  23  25
ATOM     25  O   UNL     1     -10.147 -12.134  11.258  1.00  0.00    -0.428 OA
BRANCH  25  26
ATOM     26  C   UNL     1      -9.731 -12.394  12.595  1.00  0.00     0.343 C 
ATOM     27  O   UNL     1      -8.955 -13.612  12.696  1.00  0.00    -0.332 OA
ATOM     28  C   UNL     1     -10.941 -12.496  13.521  1.00  0.00     0.214 C 
ATOM     29  C   UNL     1      -9.627 -14.834  12.340  1.00  0.00     0.179 C 
ATOM     30  C   UNL     1     -11.779 -13.724  13.159  1.00  0.00     0.180 C 
ATOM     31  C   UNL     1     -10.912 -15.005  13.145  1.00  0.00     0.177 C 
BRANCH  28  32
ATOM     32  O   UNL     1     -11.764 -11.314  13.524  1.00  0.00    -0.384 OA
ATOM     33  H   UNL     1     -11.917 -11.098  12.580  1.00  0.00     0.211 HD
ENDBRANCH  28  32
BRANCH  29  34
ATOM     34  C   UNL     1      -9.831 -14.986  10.820  1.00  0.00     0.191 C 
BRANCH  34  35
ATOM     35  O   UNL     1      -8.710 -14.464  10.107  1.00  0.00    -0.394 OA
ATOM     36  H   UNL     1      -9.013 -13.732   9.542  1.00  0.00     0.210 HD
ENDBRANCH  34  35
ENDBRANCH  29  34
BRANCH  30  37
ATOM     37  O   UNL     1     -12.832 -13.790  14.146  1.00  0.00    -0.387 OA
ATOM     38  H   UNL     1     -13.636 -14.091  13.674  1.00  0.00     0.211 HD
ENDBRANCH  30  37
BRANCH  31  39
ATOM     39  O   UNL     1     -11.676 -16.109  12.689  1.00  0.00    -0.387 OA
ATOM     40  H   UNL     1     -12.526 -16.150  13.181  1.00  0.00     0.211 HD
ENDBRANCH  31  39
ENDBRANCH  25  26
ENDBRANCH  23  25
ENDBRANCH  20  23
BRANCH  21  41
ATOM     41  N   UNL     1      -7.856 -12.685   6.765  1.00  0.00    -0.343 N 
ATOM     42  C   UNL     1      -8.445 -14.013   6.870  1.00  0.00     0.124 C 
ATOM     43  C   UNL     1      -7.764 -12.228   5.373  1.00  0.00     0.155 C 
ATOM     44  C   UNL     1      -9.905 -14.005   6.402  1.00  0.00     0.057 C 
ATOM     45  C   UNL     1      -9.107 -12.275   4.668  1.00  0.00    -0.013 A 
ATOM     46  C   UNL     1     -10.105 -13.195   5.133  1.00  0.00    -0.040 A 
ATOM     47  C   UNL     1      -9.376 -11.486   3.519  1.00  0.00     0.045 A 
ATOM     48  C   UNL     1     -11.328 -13.317   4.476  1.00  0.00     0.004 A 
ATOM     49  C   UNL     1     -10.619 -11.663   2.864  1.00  0.00     0.014 A 
ATOM     50  C   UNL     1     -11.583 -12.574   3.331  1.00  0.00     0.001 A 
BRANCH  47  51
ATOM     51  C   UNL     1      -8.347 -10.536   2.965  1.00  0.00     0.257 C 
ATOM     52  O   UNL     1      -7.498 -10.983   2.225  1.00  0.00    -0.269 OA
ATOM     53  N   UNL     1      -8.521  -9.216   3.320  1.00  0.00    -0.298 N 
ATOM     54  H   UNL     1      -9.386  -8.910   3.731  1.00  0.00     0.172 HD
BRANCH  53  55
ATOM     55  C   UNL     1      -7.852  -8.212   2.702  1.00  0.00     0.190 A 
ATOM     56  N   UNL     1      -7.769  -7.959   1.413  1.00  0.00    -0.220 NA
ATOM     57  S   UNL     1      -7.049  -7.139   3.775  1.00  0.00    -0.097 S 
ATOM     58  C   UNL     1      -7.031  -6.793   1.243  1.00  0.00     0.084 A 
ATOM     59  C   UNL     1      -6.583  -6.175   2.415  1.00  0.00     0.056 A 
ATOM     60  C   UNL     1      -6.707  -6.179  -0.001  1.00  0.00     0.030 A 
ATOM     61  C   UNL     1      -5.840  -4.967   2.408  1.00  0.00     0.021 A 
ATOM     62  C   UNL     1      -5.990  -4.956  -0.041  1.00  0.00     0.002 A 
ATOM     63  C   UNL     1      -5.587  -4.365   1.161  1.00  0.00     0.002 A 
ENDBRANCH  53  55
ENDBRANCH  47  51
ENDBRANCH  21  41
ENDBRANCH   1  18
TORSDOF 18
ENDMDL
MODEL 3
REMARK VINA RESULT:    -6.438      4.689     11.428
REMARK INTER + INTRA:         -17.044
REMARK INTER:                 -12.010
REMARK INTRA:                  -5.034
REMARK UNBOUND:                -4.584
REMARK SMILES CN(C)CC#Cc1ccc(OCCCc2sc(N3CCc4cccc(C(=O)Nc5nc6ccccc6s5)c4C3)nc2C(=O)OC2O[C@H](CO)[C@H](O)[C@@H](O)[C@@H]2O)c(F)c1
REMARK SMILES IDX 14 1 13 2 12 3 11 4 10 5 6 6 7 7 8 8 58 9 9 10 56 11 57 12
REMARK SMILES IDX 5 13 4 14 2 15 1 16 3 17 15 18 16 19 41 20 17 21 40 22 42 23
REMARK SMILES IDX 43 24 44 25 45 26 46 27 54 28 47 29 52 30 50 31 55 32 48 34
REMARK SMILES IDX 49 35 53 37 51 39 18 41 19 42 39 43 20 44 38 45 21 46 25 47
REMARK SMILES IDX 22 48 24 49 23 50 26 51 27 52 28 53 29 55 30 56 37 57 31 58
REMARK SMILES IDX 36 59 32 60 35 61 33 62 34 63
REMARK H PARENT 55 33 49 36 53 38 51 40 28 54
ROOT
ATOM      1  C   UNL     1      -5.641  -6.375   5.881  1.00  0.00     0.053 C 
ENDROOT
BRANCH   1   2
ATOM      2  C   UNL     1      -5.414  -4.881   5.608  1.00  0.00     0.047 C 
BRANCH   2   3
ATOM      3  C   UNL     1      -4.013  -4.424   6.015  1.00  0.00     0.230 C 
BRANCH   3   4
ATOM      4  O   UNL     1      -4.064  -3.400   7.016  1.00  0.00    -0.491 OA
BRANCH   4   5
ATOM      5  C   UNL     1      -3.001  -3.277   7.873  1.00  0.00     0.155 A 
ATOM      6  C   UNL     1       0.330  -2.548  10.380  1.00  0.00    -0.066 C 
ATOM      7  C   UNL     1      -0.786  -2.800   9.519  1.00  0.00     0.028 A 
ATOM      8  C   UNL     1      -1.721  -3.781   9.865  1.00  0.00     0.021 A 
ATOM      9  C   UNL     1      -0.927  -2.079   8.332  1.00  0.00     0.060 A 
ATOM     10  C   UNL     1      -2.837  -3.998   9.060  1.00  0.00     0.051 A 
ATOM     11  C   UNL     1      -2.044  -2.308   7.534  1.00  0.00     0.166 A 
ATOM     12  F   UNL     1      -2.163  -1.594   6.407  1.00  0.00    -0.203 F 
BRANCH   6  13
ATOM     13  C   UNL     1       1.201  -2.237  11.147  1.00  0.00    -0.082 C 
ATOM     14  C   UNL     1       2.235  -1.670  12.020  1.00  0.00     0.174 C 
BRANCH  14  15
ATOM     15  N   UNL     1       1.793  -0.543  12.864  1.00  0.00    -0.299 NA
ATOM     16  C   UNL     1       2.686   0.600  12.808  1.00  0.00     0.106 C 
ATOM     17  C   UNL     1       1.574  -0.963  14.273  1.00  0.00     0.106 C 
ENDBRANCH  14  15
ENDBRANCH   6  13
ENDBRANCH   4   5
ENDBRANCH   3   4
ENDBRANCH   2   3
ENDBRANCH   1   2
BRANCH   1  18
ATOM     18  C   UNL     1      -4.993  -7.003   7.091  1.00  0.00     0.042 A 
ATOM     19  S   UNL     1      -3.608  -7.998   6.977  1.00  0.00    -0.101 S 
ATOM     20  C   UNL     1      -5.332  -6.823   8.413  1.00  0.00     0.164 A 
ATOM     21  C   UNL     1      -3.519  -8.108   8.707  1.00  0.00     0.186 A 
ATOM     22  N   UNL     1      -4.529  -7.506   9.330  1.00  0.00    -0.213 NA
BRANCH  20  23
ATOM     23  C   UNL     1      -6.418  -5.908   8.854  1.00  0.00     0.360 C 
ATOM     24  O   UNL     1      -6.267  -4.723   9.101  1.00  0.00    -0.244 OA
BRANCH  23  25
ATOM     25  O   UNL     1      -7.599  -6.586   8.962  1.00  0.00    -0.428 OA
BRANCH  25  26
ATOM     26  C   UNL     1      -8.084  -6.725  10.294  1.00  0.00     0.343 C 
ATOM     27  O   UNL     1      -7.741  -8.009  10.868  1.00  0.00    -0.332 OA
ATOM     28  C   UNL     1      -9.602  -6.553  10.330  1.00  0.00     0.214 C 
ATOM     29  C   UNL     1      -8.288  -9.171  10.218  1.00  0.00     0.179 C 
ATOM     30  C   UNL     1     -10.279  -7.701   9.579  1.00  0.00     0.180 C 
ATOM     31  C   UNL     1      -9.808  -9.073  10.115  1.00  0.00     0.177 C 
BRANCH  28  32
ATOM     32  O   UNL     1     -10.049  -5.285   9.814  1.00  0.00    -0.384 OA
ATOM     33  H   UNL     1      -9.325  -4.653  10.007  1.00  0.00     0.211 HD
ENDBRANCH  28  32
BRANCH  29  34
ATOM     34  C   UNL     1      -7.602  -9.488   8.876  1.00  0.00     0.191 C 
BRANCH  34  35
ATOM     35  O   UNL     1      -8.404  -9.040   7.782  1.00  0.00    -0.394 OA
ATOM     36  H   UNL     1      -7.830  -8.914   7.006  1.00  0.00     0.210 HD
ENDBRANCH  34  35
ENDBRANCH  29  34
BRANCH  30  37
ATOM     37  O   UNL     1     -11.700  -7.505   9.755  1.00  0.00    -0.387 OA
ATOM     38  H   UNL     1     -11.824  -7.194  10.676  1.00  0.00     0.211 HD
ENDBRANCH  30  37
BRANCH  31  39
ATOM     39  O   UNL     1     -10.351 -10.120   9.327  1.00  0.00    -0.387 OA
ATOM     40  H   UNL     1     -10.611 -10.870   9.906  1.00  0.00     0.211 HD
ENDBRANCH  31  39
ENDBRANCH  25  26
ENDBRANCH  23  25
ENDBRANCH  20  23
BRANCH  21  41
ATOM     41  N   UNL     1      -2.523  -8.774   9.379  1.00  0.00    -0.343 N 
ATOM     42  C   UNL     1      -1.263  -9.007   8.686  1.00  0.00     0.124 C 
ATOM     43  C   UNL     1      -2.348  -8.691  10.834  1.00  0.00     0.155 C 
ATOM     44  C   UNL     1      -0.312  -7.817   8.861  1.00  0.00     0.057 C 
ATOM     45  C   UNL     1      -1.321  -7.645  11.225  1.00  0.00    -0.013 A 
ATOM     46  C   UNL     1      -0.297  -7.289  10.285  1.00  0.00    -0.040 A 
ATOM     47  C   UNL     1      -1.303  -7.062  12.520  1.00  0.00     0.045 A 
ATOM     48  C   UNL     1       0.703  -6.380  10.626  1.00  0.00     0.004 A 
ATOM     49  C   UNL     1      -0.251  -6.167  12.834  1.00  0.00     0.014 A 
ATOM     50  C   UNL     1       0.746  -5.834  11.902  1.00  0.00     0.001 A 
BRANCH  47  51
ATOM     51  C   UNL     1      -2.329  -7.433  13.559  1.00  0.00     0.257 C 
ATOM     52  O   UNL     1      -3.349  -6.783  13.610  1.00  0.00    -0.269 OA
ATOM     53  N   UNL     1      -2.014  -8.537  14.320  1.00  0.00    -0.298 N 
ATOM     54  H   UNL     1      -1.267  -9.151  14.042  1.00  0.00     0.172 HD
BRANCH  53  55
ATOM     55  C   UNL     1      -2.932  -9.154  15.105  1.00  0.00     0.190 A 
ATOM     56  N   UNL     1      -3.136  -9.002  16.395  1.00  0.00    -0.220 NA
ATOM     57  S   UNL     1      -3.957 -10.242  14.260  1.00  0.00    -0.097 S 
ATOM     58  C   UNL     1      -4.223  -9.788  16.762  1.00  0.00     0.084 A 
ATOM     59  C   UNL     1      -4.832 -10.510  15.730  1.00  0.00     0.056 A 
ATOM     60  C   UNL     1      -4.766  -9.911  18.073  1.00  0.00     0.030 A 
ATOM     61  C   UNL     1      -5.965 -11.337  15.939  1.00  0.00     0.021 A 
ATOM     62  C   UNL     1      -5.915 -10.708  18.310  1.00  0.00     0.002 A 
ATOM     63  C   UNL     1      -6.503 -11.390  17.239  1.00  0.00     0.002 A 
ENDBRANCH  53  55
ENDBRANCH  47  51
ENDBRANCH  21  41
ENDBRANCH   1  18
TORSDOF 18
ENDMDL
