MODEL 1
REMARK VINA RESULT:    -6.123      0.000      0.000
REMARK INTER + INTRA:         -14.183
REMARK INTER:                 -10.239
REMARK INTRA:                  -3.944
REMARK UNBOUND:                -3.944
REMARK SMILES CN(C)CC#Cc1ccc(OCCCc2sc(N3CCc4cccc(C(=O)Nc5nc6ccccc6s5)c4C3)nc2C(=O)O)c(F)c1
REMARK SMILES IDX 12 1 11 2 10 3 6 4 7 5 8 6 47 7 9 8 45 9 46 10 5 11 4 12
REMARK SMILES IDX 2 13 1 14 3 15 13 16 14 17 15 18 16 19 41 20 17 21 40 22
REMARK SMILES IDX 42 23 43 24 44 25 18 27 19 28 39 29 20 30 38 31 21 32 25 33
REMARK SMILES IDX 22 34 24 35 23 36 26 37 27 38 28 39 29 41 30 42 37 43 31 44
REMARK SMILES IDX 36 45 32 46 35 47 33 48 34 49
REMARK H PARENT 44 26 28 40
ROOT
ATOM      1  C   UNL     1      -9.060  -9.523  10.254  1.00  0.00     0.230 C 
ENDROOT
BRANCH   1   2
ATOM      2  O   UNL     1      -7.854  -9.426  11.008  1.00  0.00    -0.491 OA
BRANCH   2   3
ATOM      3  C   UNL     1      -6.707  -9.009  10.393  1.00  0.00     0.155 A 
ATOM      4  C   UNL     1      -3.079  -7.477   8.819  1.00  0.00    -0.066 C 
ATOM      5  C   UNL     1      -4.299  -7.990   9.357  1.00  0.00     0.028 A 
ATOM      6  C   UNL     1      -5.057  -8.904   8.622  1.00  0.00     0.021 A 
ATOM      7  C   UNL     1      -4.739  -7.584  10.613  1.00  0.00     0.060 A 
ATOM      8  C   UNL     1      -6.257  -9.413   9.136  1.00  0.00     0.051 A 
ATOM      9  C   UNL     1      -5.933  -8.093  11.117  1.00  0.00     0.166 A 
ATOM     10  F   UNL     1      -6.336  -7.686  12.331  1.00  0.00    -0.203 F 
BRANCH   4  11
ATOM     11  C   UNL     1      -2.055  -7.053   8.356  1.00  0.00    -0.082 C 
ATOM     12  C   UNL     1      -0.799  -6.554   7.776  1.00  0.00     0.174 C 
BRANCH  12  13
ATOM     13  N   UNL     1      -0.024  -5.756   8.739  1.00  0.00    -0.299 NA
ATOM     14  C   UNL     1       0.578  -6.598   9.775  1.00  0.00     0.106 C 
ATOM     15  C   UNL     1       1.023  -5.009   8.037  1.00  0.00     0.106 C 
ENDBRANCH  12  13
ENDBRANCH   4  11
ENDBRANCH   2   3
ENDBRANCH   1   2
BRANCH   1  16
ATOM     16  C   UNL     1     -10.010  -8.359  10.554  1.00  0.00     0.047 C 
BRANCH  16  17
ATOM     17  C   UNL     1     -10.317  -7.473   9.338  1.00  0.00     0.053 C 
BRANCH  17  18
ATOM     18  C   UNL     1      -9.080  -6.897   8.710  1.00  0.00     0.042 A 
ATOM     19  S   UNL     1      -8.176  -5.721   9.576  1.00  0.00    -0.101 S 
ATOM     20  C   UNL     1      -8.482  -7.126   7.477  1.00  0.00     0.164 A 
ATOM     21  C   UNL     1      -6.998  -5.649   8.318  1.00  0.00     0.186 A 
ATOM     22  N   UNL     1      -7.293  -6.415   7.293  1.00  0.00    -0.213 NA
BRANCH  20  23
ATOM     23  C   UNL     1      -8.957  -8.009   6.409  1.00  0.00     0.355 C 
ATOM     24  O   UNL     1      -9.044  -9.229   6.471  1.00  0.00    -0.244 OA
BRANCH  23  25
ATOM     25  O   UNL     1      -9.320  -7.401   5.254  1.00  0.00    -0.476 OA
ATOM     26  H   UNL     1     -10.069  -6.842   5.552  1.00  0.00     0.297 HD
ENDBRANCH  23  25
ENDBRANCH  20  23
BRANCH  21  27
ATOM     27  N   UNL     1      -5.849  -4.912   8.405  1.00  0.00    -0.343 N 
ATOM     28  C   UNL     1      -5.558  -4.151   9.614  1.00  0.00     0.124 C 
ATOM     29  C   UNL     1      -5.366  -4.318   7.146  1.00  0.00     0.155 C 
ATOM     30  C   UNL     1      -4.044  -4.050   9.783  1.00  0.00     0.057 C 
ATOM     31  C   UNL     1      -4.021  -3.614   7.288  1.00  0.00    -0.013 A 
ATOM     32  C   UNL     1      -3.390  -3.490   8.546  1.00  0.00    -0.040 A 
ATOM     33  C   UNL     1      -3.381  -3.042   6.166  1.00  0.00     0.045 A 
ATOM     34  C   UNL     1      -2.132  -2.877   8.657  1.00  0.00     0.004 A 
ATOM     35  C   UNL     1      -2.120  -2.432   6.292  1.00  0.00     0.014 A 
ATOM     36  C   UNL     1      -1.497  -2.355   7.534  1.00  0.00     0.001 A 
BRANCH  33  37
ATOM     37  C   UNL     1      -4.007  -3.062   4.814  1.00  0.00     0.257 C 
ATOM     38  O   UNL     1      -3.851  -4.046   4.108  1.00  0.00    -0.269 OA
ATOM     39  N   UNL     1      -4.720  -1.920   4.530  1.00  0.00    -0.298 N 
ATOM     40  H   UNL     1      -4.815  -1.199   5.230  1.00  0.00     0.172 HD
BRANCH  39  41
ATOM     41  C   UNL     1      -5.360  -1.609   3.358  1.00  0.00     0.190 A 
ATOM     42  N   UNL     1      -6.669  -1.659   3.284  1.00  0.00    -0.220 NA
ATOM     43  S   UNL     1      -4.542  -1.119   1.953  1.00  0.00    -0.097 S 
ATOM     44  C   UNL     1      -7.076  -1.286   2.014  1.00  0.00     0.084 A 
ATOM     45  C   UNL     1      -6.045  -0.953   1.132  1.00  0.00     0.056 A 
ATOM     46  C   UNL     1      -8.407  -1.225   1.556  1.00  0.00     0.030 A 
ATOM     47  C   UNL     1      -6.300  -0.557  -0.191  1.00  0.00     0.021 A 
ATOM     48  C   UNL     1      -8.672  -0.832   0.238  1.00  0.00     0.002 A 
ATOM     49  C   UNL     1      -7.629  -0.504  -0.623  1.00  0.00     0.002 A 
ENDBRANCH  39  41
ENDBRANCH  33  37
ENDBRANCH  21  27
ENDBRANCH  17  18
ENDBRANCH  16  17
ENDBRANCH   1  16
TORSDOF 12
ENDMDL
MODEL 2
REMARK VINA RESULT:    -6.107      4.702      7.957
REMARK INTER + INTRA:         -14.157
REMARK INTER:                 -12.693
REMARK INTRA:                  -1.464
REMARK UNBOUND:                -3.944
REMARK SMILES CN(C)CC#Cc1ccc(OCCCc2sc(N3CCc4cccc(C(=O)Nc5nc6ccccc6s5)c4C3)nc2C(=O)O)c(F)c1
REMARK SMILES IDX 12 1 11 2 10 3 6 4 7 5 8 6 47 7 9 8 45 9 46 10 5 11 4 12
REMARK SMILES IDX 2 13 1 14 3 15 13 16 14 17 15 18 16 19 41 20 17 21 40 22
REMARK SMILES IDX 42 23 43 24 44 25 18 27 19 28 39 29 20 30 38 31 21 32 25 33
REMARK SMILES IDX 22 34 24 35 23 36 26 37 27 38 28 39 29 41 30 42 37 43 31 44
REMARK SMILES IDX 36 45 32 46 35 47 33 48 34 49
REMARK H PARENT 44 26 28 40
ROOT
ATOM      1  C   UNL     1     -10.186 -10.248   8.269  1.00  0.00     0.230 C 
ENDROOT
BRANCH   1   2
ATOM      2  O   UNL     1     -10.575 -11.414   7.546  1.00  0.00    -0.491 OA
BRANCH   2   3
ATOM      3  C   UNL     1     -11.899 -11.736   7.450  1.00  0.00     0.155 A 
ATOM      4  C   UNL     1     -16.036 -12.453   6.847  1.00  0.00    -0.066 C 
ATOM      5  C   UNL     1     -14.642 -12.207   7.042  1.00  0.00     0.028 A 
ATOM      6  C   UNL     1     -13.939 -12.912   8.022  1.00  0.00     0.021 A 
ATOM      7  C   UNL     1     -13.978 -11.267   6.261  1.00  0.00     0.060 A 
ATOM      8  C   UNL     1     -12.573 -12.679   8.226  1.00  0.00     0.051 A 
ATOM      9  C   UNL     1     -12.620 -11.040   6.471  1.00  0.00     0.166 A 
ATOM     10  F   UNL     1     -12.002 -10.128   5.704  1.00  0.00    -0.203 F 
BRANCH   4  11
ATOM     11  C   UNL     1     -17.208 -12.668   6.693  1.00  0.00    -0.082 C 
ATOM     12  C   UNL     1     -18.640 -12.928   6.480  1.00  0.00     0.174 C 
BRANCH  12  13
ATOM     13  N   UNL     1     -19.465 -12.420   7.586  1.00  0.00    -0.299 NA
ATOM     14  C   UNL     1     -20.764 -11.937   7.111  1.00  0.00     0.106 C 
ATOM     15  C   UNL     1     -19.663 -13.473   8.584  1.00  0.00     0.106 C 
ENDBRANCH  12  13
ENDBRANCH   4  11
ENDBRANCH   2   3
ENDBRANCH   1   2
BRANCH   1  16
ATOM     16  C   UNL     1      -9.187  -9.398   7.478  1.00  0.00     0.047 C 
BRANCH  16  17
ATOM     17  C   UNL     1      -9.552  -7.908   7.408  1.00  0.00     0.053 C 
BRANCH  17  18
ATOM     18  C   UNL     1      -8.589  -7.036   8.162  1.00  0.00     0.042 A 
ATOM     19  S   UNL     1      -7.071  -6.661   7.450  1.00  0.00    -0.101 S 
ATOM     20  C   UNL     1      -8.674  -6.439   9.414  1.00  0.00     0.164 A 
ATOM     21  C   UNL     1      -6.651  -5.660   8.791  1.00  0.00     0.186 A 
ATOM     22  N   UNL     1      -7.565  -5.651   9.733  1.00  0.00    -0.213 NA
BRANCH  20  23
ATOM     23  C   UNL     1      -9.772  -6.548  10.378  1.00  0.00     0.355 C 
ATOM     24  O   UNL     1     -10.161  -7.580  10.910  1.00  0.00    -0.244 OA
BRANCH  23  25
ATOM     25  O   UNL     1     -10.403  -5.391  10.691  1.00  0.00    -0.476 OA
ATOM     26  H   UNL     1      -9.826  -4.727  10.259  1.00  0.00     0.297 HD
ENDBRANCH  23  25
ENDBRANCH  20  23
BRANCH  21  27
ATOM     27  N   UNL     1      -5.509  -4.909   8.839  1.00  0.00    -0.343 N 
ATOM     28  C   UNL     1      -5.189  -4.140  10.036  1.00  0.00     0.124 C 
ATOM     29  C   UNL     1      -5.071  -4.315   7.564  1.00  0.00     0.155 C 
ATOM     30  C   UNL     1      -3.672  -4.021  10.157  1.00  0.00     0.057 C 
ATOM     31  C   UNL     1      -3.731  -3.594   7.661  1.00  0.00    -0.013 A 
ATOM     32  C   UNL     1      -3.063  -3.458   8.898  1.00  0.00    -0.040 A 
ATOM     33  C   UNL     1      -3.133  -3.019   6.518  1.00  0.00     0.045 A 
ATOM     34  C   UNL     1      -1.810  -2.829   8.968  1.00  0.00     0.004 A 
ATOM     35  C   UNL     1      -1.877  -2.393   6.602  1.00  0.00     0.014 A 
ATOM     36  C   UNL     1      -1.217  -2.304   7.824  1.00  0.00     0.001 A 
BRANCH  33  37
ATOM     37  C   UNL     1      -3.801  -3.052   5.186  1.00  0.00     0.257 C 
ATOM     38  O   UNL     1      -3.750  -4.080   4.528  1.00  0.00    -0.269 OA
ATOM     39  N   UNL     1      -4.424  -1.868   4.863  1.00  0.00    -0.298 N 
ATOM     40  H   UNL     1      -4.436  -1.108   5.527  1.00  0.00     0.172 HD
BRANCH  39  41
ATOM     41  C   UNL     1      -5.071  -1.562   3.694  1.00  0.00     0.190 A 
ATOM     42  N   UNL     1      -6.356  -1.798   3.566  1.00  0.00    -0.220 NA
ATOM     43  S   UNL     1      -4.299  -0.846   2.362  1.00  0.00    -0.097 S 
ATOM     44  C   UNL     1      -6.779  -1.388   2.313  1.00  0.00     0.084 A 
ATOM     45  C   UNL     1      -5.787  -0.838   1.499  1.00  0.00     0.056 A 
ATOM     46  C   UNL     1      -8.092  -1.486   1.810  1.00  0.00     0.030 A 
ATOM     47  C   UNL     1      -6.063  -0.378   0.200  1.00  0.00     0.021 A 
ATOM     48  C   UNL     1      -8.377  -1.033   0.517  1.00  0.00     0.002 A 
ATOM     49  C   UNL     1      -7.373  -0.487  -0.276  1.00  0.00     0.002 A 
ENDBRANCH  39  41
ENDBRANCH  33  37
ENDBRANCH  21  27
ENDBRANCH  17  18
ENDBRANCH  16  17
ENDBRANCH   1  16
TORSDOF 12
ENDMDL
MODEL 3
REMARK VINA RESULT:    -6.084      5.799     10.825
REMARK INTER + INTRA:         -14.118
REMARK INTER:                 -12.624
REMARK INTRA:                  -1.494
REMARK UNBOUND:                -3.944
REMARK SMILES CN(C)CC#Cc1ccc(OCCCc2sc(N3CCc4cccc(C(=O)Nc5nc6ccccc6s5)c4C3)nc2C(=O)O)c(F)c1
REMARK SMILES IDX 12 1 11 2 10 3 6 4 7 5 8 6 47 7 9 8 45 9 46 10 5 11 4 12
REMARK SMILES IDX 2 13 1 14 3 15 13 16 14 17 15 18 16 19 41 20 17 21 40 22
REMARK SMILES IDX 42 23 43 24 44 25 18 27 19 28 39 29 20 30 38 31 21 32 25 33
REMARK SMILES IDX 22 34 24 35 23 36 26 37 27 38 28 39 29 41 30 42 37 43 31 44
REMARK SMILES IDX 36 45 32 46 35 47 33 48 34 49
REMARK H PARENT 44 26 28 40
ROOT
ATOM      1  C   UNL     1     -11.236 -11.203   8.277  1.00  0.00     0.230 C 
ENDROOT
BRANCH   1   2
ATOM      2  O   UNL     1     -11.888 -12.074   7.356  1.00  0.00    -0.491 OA
BRANCH   2   3
ATOM      3  C   UNL     1     -13.250 -12.188   7.385  1.00  0.00     0.155 A 
ATOM      4  C   UNL     1     -17.485 -12.253   7.173  1.00  0.00    -0.066 C 
ATOM      5  C   UNL     1     -16.058 -12.227   7.236  1.00  0.00     0.028 A 
ATOM      6  C   UNL     1     -15.385 -13.039   8.153  1.00  0.00     0.021 A 
ATOM      7  C   UNL     1     -15.333 -11.395   6.390  1.00  0.00     0.060 A 
ATOM      8  C   UNL     1     -13.987 -13.020   8.228  1.00  0.00     0.051 A 
ATOM      9  C   UNL     1     -13.942 -11.381   6.472  1.00  0.00     0.166 A 
ATOM     10  F   UNL     1     -13.264 -10.571   5.645  1.00  0.00    -0.203 F 
BRANCH   4  11
ATOM     11  C   UNL     1     -18.686 -12.283   7.129  1.00  0.00    -0.082 C 
ATOM     12  C   UNL     1     -20.156 -12.298   7.082  1.00  0.00     0.174 C 
BRANCH  12  13
ATOM     13  N   UNL     1     -20.710 -13.597   7.491  1.00  0.00    -0.299 NA
ATOM     14  C   UNL     1     -20.125 -14.699   6.722  1.00  0.00     0.106 C 
ATOM     15  C   UNL     1     -20.473 -13.811   8.920  1.00  0.00     0.106 C 
ENDBRANCH  12  13
ENDBRANCH   4  11
ENDBRANCH   2   3
ENDBRANCH   1   2
BRANCH   1  16
ATOM     16  C   UNL     1     -10.404 -10.138   7.557  1.00  0.00     0.047 C 
BRANCH  16  17
ATOM     17  C   UNL     1     -10.891  -8.701   7.790  1.00  0.00     0.053 C 
BRANCH  17  18
ATOM     18  C   UNL     1      -9.764  -7.732   8.009  1.00  0.00     0.042 A 
ATOM     19  S   UNL     1      -8.610  -7.500   6.758  1.00  0.00    -0.101 S 
ATOM     20  C   UNL     1      -9.430  -6.939   9.101  1.00  0.00     0.164 A 
ATOM     21  C   UNL     1      -7.790  -6.301   7.689  1.00  0.00     0.186 A 
ATOM     22  N   UNL     1      -8.315  -6.126   8.880  1.00  0.00    -0.213 NA
BRANCH  20  23
ATOM     23  C   UNL     1     -10.114  -6.875  10.395  1.00  0.00     0.355 C 
ATOM     24  O   UNL     1     -10.423  -7.832  11.093  1.00  0.00    -0.244 OA
BRANCH  23  25
ATOM     25  O   UNL     1     -10.430  -5.633  10.837  1.00  0.00    -0.476 OA
ATOM     26  H   UNL     1      -9.942  -5.067  10.203  1.00  0.00     0.297 HD
ENDBRANCH  23  25
ENDBRANCH  20  23
BRANCH  21  27
ATOM     27  N   UNL     1      -6.738  -5.569   7.213  1.00  0.00    -0.343 N 
ATOM     28  C   UNL     1      -6.288  -5.743   5.837  1.00  0.00     0.124 C 
ATOM     29  C   UNL     1      -5.685  -5.239   8.190  1.00  0.00     0.155 C 
ATOM     30  C   UNL     1      -5.688  -4.430   5.341  1.00  0.00     0.057 C 
ATOM     31  C   UNL     1      -4.604  -4.323   7.628  1.00  0.00    -0.013 A 
ATOM     32  C   UNL     1      -4.609  -3.935   6.270  1.00  0.00    -0.040 A 
ATOM     33  C   UNL     1      -3.552  -3.857   8.446  1.00  0.00     0.045 A 
ATOM     34  C   UNL     1      -3.633  -3.056   5.774  1.00  0.00     0.004 A 
ATOM     35  C   UNL     1      -2.581  -2.976   7.937  1.00  0.00     0.014 A 
ATOM     36  C   UNL     1      -2.626  -2.575   6.606  1.00  0.00     0.001 A 
BRANCH  33  37
ATOM     37  C   UNL     1      -3.427  -4.273   9.872  1.00  0.00     0.257 C 
ATOM     38  O   UNL     1      -3.986  -3.608  10.730  1.00  0.00    -0.269 OA
ATOM     39  N   UNL     1      -2.672  -5.411  10.040  1.00  0.00    -0.298 N 
ATOM     40  H   UNL     1      -2.309  -5.898   9.234  1.00  0.00     0.172 HD
BRANCH  39  41
ATOM     41  C   UNL     1      -2.324  -6.012  11.223  1.00  0.00     0.190 A 
ATOM     42  N   UNL     1      -3.250  -6.492  12.019  1.00  0.00    -0.220 NA
ATOM     43  S   UNL     1      -0.716  -6.207  11.732  1.00  0.00    -0.097 S 
ATOM     44  C   UNL     1      -2.655  -7.061  13.132  1.00  0.00     0.084 A 
ATOM     45  C   UNL     1      -1.260  -7.000  13.158  1.00  0.00     0.056 A 
ATOM     46  C   UNL     1      -3.327  -7.672  14.209  1.00  0.00     0.030 A 
ATOM     47  C   UNL     1      -0.513  -7.532  14.222  1.00  0.00     0.021 A 
ATOM     48  C   UNL     1      -2.593  -8.205  15.275  1.00  0.00     0.002 A 
ATOM     49  C   UNL     1      -1.203  -8.134  15.279  1.00  0.00     0.002 A 
ENDBRANCH  39  41
ENDBRANCH  33  37
ENDBRANCH  21  27
ENDBRANCH  17  18
ENDBRANCH  16  17
ENDBRANCH   1  16
TORSDOF 12
ENDMDL
