REMARK SMILES O=S(=O)(NC1CCNCC1)c1cc(S(=O)(=O)c2ccccc2)ccc1C(F)(F)F
REMARK SMILES IDX 2 1 1 2 3 3 4 4 5 6 6 7 7 8 8 9 10 10 9 11 11 13 25 14 12 15
REMARK SMILES IDX 24 16 13 17 23 18 26 19 27 20 28 21 29 22 14 23 15 24 16 25
REMARK SMILES IDX 17 26 18 27 22 28 19 29 21 30 20 31
REMARK H PARENT 4 5 8 12
ROOT
ATOM      1  S   UNL     1      -2.570   1.566  -2.137  1.00  0.00     0.241 S 
ATOM      2  O   UNL     1      -2.510   2.972  -1.799  1.00  0.00    -0.207 OA
ATOM      3  O   UNL     1      -1.489   0.667  -1.787  1.00  0.00    -0.207 OA
ENDROOT
BRANCH   1   4
ATOM      4  N   UNL     1      -4.027   0.954  -1.548  1.00  0.00    -0.208 NA
ATOM      5  H   UNL     1      -4.214  -0.005  -1.843  1.00  0.00     0.141 HD
BRANCH   4   6
ATOM      6  C   UNL     1      -5.203   1.847  -1.359  1.00  0.00     0.072 C 
ATOM      7  C   UNL     1      -6.349   1.087  -0.669  1.00  0.00     0.035 C 
ATOM      8  C   UNL     1      -6.982   0.051  -1.597  1.00  0.00     0.082 C 
ATOM      9  N   UNL     1      -7.429   0.645  -2.859  1.00  0.00    -0.317 NA
ATOM     10  C   UNL     1      -5.729   2.428  -2.663  1.00  0.00     0.035 C 
ATOM     11  C   UNL     1      -6.349   1.350  -3.546  1.00  0.00     0.082 C 
ATOM     12  H   UNL     1      -8.188   1.301  -2.672  1.00  0.00     0.122 HD
ENDBRANCH   4   6
ENDBRANCH   1   4
BRANCH   1  13
ATOM     13  C   UNL     1      -2.759   1.434  -3.917  1.00  0.00     0.096 A 
ATOM     14  C   UNL     1      -2.839   0.202  -4.594  1.00  0.00     0.076 A 
ATOM     15  C   UNL     1      -2.871   2.642  -4.628  1.00  0.00     0.043 A 
ATOM     16  C   UNL     1      -3.012   0.229  -6.000  1.00  0.00     0.016 A 
ATOM     17  C   UNL     1      -3.136   2.629  -5.998  1.00  0.00     0.073 A 
ATOM     18  C   UNL     1      -3.180   1.427  -6.696  1.00  0.00     0.021 A 
BRANCH  14  19
ATOM     19  C   UNL     1      -2.855  -1.173  -3.960  1.00  0.00     0.417 C 
ATOM     20  F   UNL     1      -2.862  -1.216  -2.608  1.00  0.00    -0.166 F 
ATOM     21  F   UNL     1      -3.992  -1.844  -4.314  1.00  0.00    -0.166 F 
ATOM     22  F   UNL     1      -1.826  -1.956  -4.378  1.00  0.00    -0.166 F 
ENDBRANCH  14  19
BRANCH  17  23
ATOM     23  S   UNL     1      -3.656   4.144  -6.777  1.00  0.00     0.206 S 
ATOM     24  O   UNL     1      -4.043   3.812  -8.140  1.00  0.00    -0.219 OA
ATOM     25  O   UNL     1      -4.619   4.746  -5.875  1.00  0.00    -0.219 OA
BRANCH  23  26
ATOM     26  C   UNL     1      -2.245   5.211  -6.872  1.00  0.00     0.072 A 
ATOM     27  C   UNL     1      -1.431   5.178  -8.008  1.00  0.00     0.021 A 
ATOM     28  C   UNL     1      -1.998   6.118  -5.837  1.00  0.00     0.021 A 
ATOM     29  C   UNL     1      -0.335   6.034  -8.089  1.00  0.00     0.001 A 
ATOM     30  C   UNL     1      -0.898   6.970  -5.925  1.00  0.00     0.001 A 
ATOM     31  C   UNL     1      -0.065   6.923  -7.045  1.00  0.00     0.000 A 
ENDBRANCH  23  26
ENDBRANCH  17  23
ENDBRANCH   1  13
TORSDOF 6
