REMARK  Name = 
REMARK  13 active torsions:
REMARK  status: ('A' for Active; 'I' for Inactive)
REMARK    1  A    between atoms: C_1  and  N_2
REMARK    2  A    between atoms: N_2  and  C_3
REMARK    3  A    between atoms: N_2  and  C_4
REMARK    4  A    between atoms: C_4  and  C_5
REMARK    5  A    between atoms: C_6  and  C_7
REMARK    6  A    between atoms: C_10  and  O_13
REMARK    7  A    between atoms: O_13  and  C_14
REMARK    8  A    between atoms: C_14  and  C_15
REMARK    9  A    between atoms: C_15  and  C_16
REMARK   10  A    between atoms: C_16  and  C_17
REMARK   11  A    between atoms: CA_18  and  C_44
REMARK   12  A    between atoms: C_28  and  C_32
REMARK   13  A    between atoms: C_44  and  OXT_46
REMARK                            x       y       z     vdW  Elec       q    Type
REMARK                         _______ _______ _______ _____ _____    ______ ____
ROOT
ATOM      1  C   UNL     1      16.265  -2.424  -2.002  0.00  0.00    +0.000 A 
ATOM      2  CA  UNL     1      16.510  -1.109  -2.357  0.00  0.00    +0.000 A 
ATOM      3  N   UNL     1      17.838  -0.822  -2.552  0.00  0.00    +0.000 NA
ATOM      4  C   UNL     1      18.637  -1.821  -2.260  0.00  0.00    +0.000 A 
ATOM      5  S   UNL     1      17.784  -3.233  -1.771  0.00  0.00    +0.000 S 
ATOM      6  N   UNL     1      19.992  -1.639  -2.379  0.00  0.00    +0.000 N 
ATOM      7  C   UNL     1      20.908  -2.321  -1.467  0.00  0.00    +0.000 C 
ATOM      8  C   UNL     1      22.392  -2.063  -1.810  0.00  0.00    +0.000 C 
ATOM      9  C   UNL     1      22.711  -0.769  -2.525  0.00  0.00    +0.000 A 
ATOM     10  C   UNL     1      21.694   0.133  -2.890  0.00  0.00    +0.000 A 
ATOM     11  C   UNL     1      20.271  -0.208  -2.608  0.00  0.00    +0.000 C 
ATOM     12  C   UNL     1      21.992   1.370  -3.523  0.00  0.00    +0.000 A 
ATOM     13  C   UNL     1      23.329   1.640  -3.849  0.00  0.00    +0.000 A 
ATOM     14  C   UNL     1      24.336   0.719  -3.540  0.00  0.00    +0.000 A 
ATOM     15  C   UNL     1      24.034  -0.466  -2.867  0.00  0.00    +0.000 A 
ENDROOT
BRANCH  12  16
ATOM     16  C   UNL     1      20.895   2.391  -3.864  0.00  0.00    +0.000 C 
ATOM     17  O   UNL     1      19.922   2.519  -3.134  0.00  0.00    +0.000 OA
ATOM     18  N   UNL     1      21.119   3.039  -5.054  0.00  0.00    +0.000 N 
ATOM     19  C   UNL     1      20.328   3.951  -5.708  0.00  0.00    +0.000 A 
ATOM     20  N   UNL     1      19.244   4.626  -5.417  0.00  0.00    +0.000 NA
ATOM     21  C   UNL     1      18.852   5.383  -6.544  0.00  0.00    +0.000 A 
ATOM     22  C   UNL     1      17.743   6.257  -6.680  0.00  0.00    +0.000 A 
ATOM     23  C   UNL     1      17.473   6.875  -7.919  0.00  0.00    +0.000 A 
ATOM     24  C   UNL     1      18.290   6.650  -9.020  0.00  0.00    +0.000 A 
ATOM     25  C   UNL     1      19.411   5.833  -8.904  0.00  0.00    +0.000 A 
ATOM     26  C   UNL     1      19.671   5.222  -7.665  0.00  0.00    +0.000 A 
ATOM     27  S   UNL     1      20.983   4.202  -7.267  0.00  0.00    +0.000 S 
ATOM     28  H   UNL     1      21.893   2.736  -5.621  0.00  0.00    +0.000 HD
ENDBRANCH  12  16
BRANCH   2  29
ATOM     29  C   UNL     1      15.582   0.001  -2.555  0.00  0.00    +0.000 C 
ATOM     30  O   UNL     1      14.370  -0.059  -2.388  0.00  0.00    +0.000 OA
BRANCH  29  31
ATOM     31  OXT UNL     1      16.225   1.142  -2.929  0.00  0.00    +0.000 OA
ATOM     32  HXT UNL     1      17.199   0.961  -2.975  0.00  0.00    +0.000 HD
ENDBRANCH  29  31
ENDBRANCH   2  29
BRANCH   1  33
ATOM     33  C   UNL     1      14.968  -3.130  -1.747  0.00  0.00    +0.000 C 
BRANCH  33  34
ATOM     34  C   UNL     1      14.294  -3.690  -3.003  0.00  0.00    +0.000 C 
BRANCH  34  35
ATOM     35  C   UNL     1      15.047  -4.791  -3.761  0.00  0.00    +0.000 C 
BRANCH  35  36
ATOM     36  O   UNL     1      14.180  -5.220  -4.820  0.00  0.00    +0.000 OA
BRANCH  36  40
ATOM     37  C   UNL     1      15.315  -7.922  -7.817  0.00  0.00    +0.000 A 
ATOM     38  C   UNL     1      14.073  -7.290  -7.826  0.00  0.00    +0.000 A 
ATOM     39  C   UNL     1      13.743  -6.404  -6.798  0.00  0.00    +0.000 A 
ATOM     40  C   UNL     1      14.628  -6.121  -5.746  0.00  0.00    +0.000 A 
ATOM     41  C   UNL     1      15.860  -6.769  -5.730  0.00  0.00    +0.000 A 
ATOM     42  C   UNL     1      16.199  -7.668  -6.759  0.00  0.00    +0.000 A 
ATOM     43  F   UNL     1      12.542  -5.806  -6.839  0.00  0.00    +0.000 F 
BRANCH  37  45
ATOM     44  C   UNL     1      16.021  -9.549  -9.767  0.00  0.00    +0.000 C 
ATOM     45  C   UNL     1      15.696  -8.811  -8.876  0.00  0.00    +0.000 C 
BRANCH  44  46
ATOM     46  C   UNL     1      16.472 -10.469 -10.834  0.00  0.00    +0.000 C 
BRANCH  46  48
ATOM     47  C   UNL     1      15.921 -12.242 -12.370  0.00  0.00    +0.000 C 
ATOM     48  N   UNL     1      15.427 -11.415 -11.263  0.00  0.00    +0.000 NA
ATOM     49  C   UNL     1      14.996 -12.283 -10.165  0.00  0.00    +0.000 C 
ENDBRANCH  46  48
ENDBRANCH  44  46
ENDBRANCH  37  45
ENDBRANCH  36  40
ENDBRANCH  35  36
ENDBRANCH  34  35
ENDBRANCH  33  34
ENDBRANCH   1  33
TORSDOF 11
