REMARK  Name = 
REMARK  3 active torsions:
REMARK  status: ('A' for Active; 'I' for Inactive)
REMARK    1  A    between atoms: O_1  and  C_2
REMARK    2  A    between atoms: C_2  and  C_4
REMARK    3  A    between atoms: C_7  and  C_10
REMARK                            x       y       z     vdW  Elec       q    Type
REMARK                         _______ _______ _______ _____ _____    ______ ____
ROOT
ATOM      1  C   UNL     1       3.157  -0.314  -1.251  0.00  0.00    +0.000 A 
ATOM      2  C   UNL     1       2.734   0.243  -2.459  0.00  0.00    +0.000 A 
ATOM      3  C   UNL     1       3.429  -0.033  -3.646  0.00  0.00    +0.000 A 
ATOM      4  C   UNL     1       4.565  -0.864  -3.655  0.00  0.00    +0.000 A 
ATOM      5  C   UNL     1       4.963  -1.416  -2.422  0.00  0.00    +0.000 A 
ATOM      6  C   UNL     1       4.262  -1.166  -1.237  0.00  0.00    +0.000 A 
ENDROOT
BRANCH   4   7
ATOM      7  C   UNL     1       5.313  -1.165  -4.903  0.00  0.00    +0.000 A 
ATOM      8  C   UNL     1       5.418  -0.235  -5.953  0.00  0.00    +0.000 A 
ATOM      9  C   UNL     1       6.147  -0.521  -7.114  0.00  0.00    +0.000 A 
ATOM     10  C   UNL     1       6.800  -1.743  -7.249  0.00  0.00    +0.000 A 
ATOM     11  C   UNL     1       6.709  -2.685  -6.231  0.00  0.00    +0.000 A 
ATOM     12  C   UNL     1       5.967  -2.402  -5.081  0.00  0.00    +0.000 A 
ENDBRANCH   4   7
BRANCH   1  13
ATOM     13  C   UNL     1       2.385  -0.017  -0.018  0.00  0.00    +0.000 C 
ATOM     14  O   UNL     1       1.187   0.204  -0.022  0.00  0.00    +0.000 OA
BRANCH  13  15
ATOM     15  O   UNL     1       3.142   0.023   1.099  0.00  0.00    +0.000 OA
ATOM     16  H   UNL     1       4.105   0.012   0.946  0.00  0.00    +0.000 HD
ENDBRANCH  13  15
ENDBRANCH   1  13
TORSDOF 3
