REMARK  Name = 
REMARK  2 active torsions:
REMARK  status: ('A' for Active; 'I' for Inactive)
REMARK    1  A    between atoms: C_2  and  O_3
REMARK    2  A    between atoms: C_2  and  C_4
REMARK                            x       y       z     vdW  Elec       q    Type
REMARK                         _______ _______ _______ _____ _____    ______ ____
ROOT
ATOM      1  C   UNL     1       2.980   0.373   1.262  0.00  0.00    +0.000 A 
ATOM      2  C   UNL     1       2.601  -0.064   2.536  0.00  0.00    +0.000 A 
ATOM      3  C   UNL     1       3.285   0.362   3.678  0.00  0.00    +0.000 A 
ATOM      4  C   UNL     1       4.357   1.243   3.497  0.00  0.00    +0.000 A 
ATOM      5  N   UNL     1       5.193   1.827   4.424  0.00  0.00    +0.000 N 
ATOM      6  C   UNL     1       6.105   2.631   3.795  0.00  0.00    +0.000 A 
ATOM      7  C   UNL     1       5.856   2.578   2.443  0.00  0.00    +0.000 A 
ATOM      8  C   UNL     1       4.753   1.705   2.241  0.00  0.00    +0.000 A 
ATOM      9  C   UNL     1       4.046   1.273   1.102  0.00  0.00    +0.000 A 
ATOM     10  H   UNL     1       5.132   1.684   5.423  0.00  0.00    +0.000 HD
ENDROOT
BRANCH   1  12
ATOM     11  O   UNL     1       1.005  -0.368   0.161  0.00  0.00    +0.000 OA
ATOM     12  C   UNL     1       2.194  -0.108   0.098  0.00  0.00    +0.000 C 
BRANCH  12  13
ATOM     13  O   UNL     1       2.930  -0.276  -1.021  0.00  0.00    +0.000 OA
ATOM     14  H   UNL     1       3.894  -0.210  -0.891  0.00  0.00    +0.000 HD
ENDBRANCH  12  13
ENDBRANCH   1  12
TORSDOF 2
