REMARK  Name = 
REMARK  5 active torsions:
REMARK  status: ('A' for Active; 'I' for Inactive)
REMARK    1  A    between atoms: O_1  and  C_2
REMARK    2  A    between atoms: C_2  and  C_4
REMARK    3  A    between atoms: C_7  and  N_10
REMARK    4  A    between atoms: N_10  and  S_11
REMARK    5  A    between atoms: S_11  and  C_14
REMARK                            x       y       z     vdW  Elec       q    Type
REMARK                         _______ _______ _______ _____ _____    ______ ____
ROOT
ATOM      1  N   UNL     1       5.341  -0.038  -4.974  0.00  0.00    +0.000 N 
ATOM      2  H   UNL     1       5.963  -0.824  -5.165  0.00  0.00    +0.000 HD
ENDROOT
BRANCH   1   6
ATOM      3  C   UNL     1       2.913  -0.001  -1.538  0.00  0.00    +0.000 A 
ATOM      4  C   UNL     1       2.854  -1.093  -2.413  0.00  0.00    +0.000 A 
ATOM      5  C   UNL     1       3.661  -1.124  -3.557  0.00  0.00    +0.000 A 
ATOM      6  C   UNL     1       4.535  -0.067  -3.808  0.00  0.00    +0.000 A 
ATOM      7  C   UNL     1       4.614   1.007  -2.922  0.00  0.00    +0.000 A 
ATOM      8  C   UNL     1       3.811   1.042  -1.783  0.00  0.00    +0.000 A 
BRANCH   3   9
ATOM      9  C   UNL     1       2.044   0.000  -0.337  0.00  0.00    +0.000 C 
ATOM     10  O   UNL     1       1.715  -1.020   0.241  0.00  0.00    +0.000 OA
BRANCH   9  11
ATOM     11  O   UNL     1       1.624   1.228   0.030  0.00  0.00    +0.000 OA
ATOM     12  H   UNL     1       1.799   1.940  -0.614  0.00  0.00    +0.000 HD
ENDBRANCH   9  11
ENDBRANCH   3   9
ENDBRANCH   1   6
BRANCH   1  13
ATOM     13  S   UNL     1       4.702   0.639  -6.385  0.00  0.00    +0.000 S 
ATOM     14  O   UNL     1       5.718   0.491  -7.406  0.00  0.00    +0.000 OA
ATOM     15  O   UNL     1       3.363   0.123  -6.579  0.00  0.00    +0.000 OA
BRANCH  13  16
ATOM     16  C   UNL     1       4.602   2.365  -5.980  0.00  0.00    +0.000 A 
ATOM     17  C   UNL     1       5.773   3.064  -5.667  0.00  0.00    +0.000 A 
ATOM     18  C   UNL     1       5.685   4.394  -5.256  0.00  0.00    +0.000 A 
ATOM     19  C   UNL     1       4.439   5.021  -5.179  0.00  0.00    +0.000 A 
ATOM     20  C   UNL     1       3.277   4.325  -5.518  0.00  0.00    +0.000 A 
ATOM     21  C   UNL     1       3.354   2.992  -5.918  0.00  0.00    +0.000 A 
ENDBRANCH  13  16
ENDBRANCH   1  13
TORSDOF 5
