REMARK  Name = 
REMARK  19 active torsions:
REMARK  status: ('A' for Active; 'I' for Inactive)
REMARK    1  A    between atoms: C_1  and  C_2
REMARK    2  A    between atoms: C_2  and  C_65
REMARK    3  A    between atoms: C_5  and  C_58
REMARK    4  A    between atoms: C_6  and  C_8
REMARK    5  A    between atoms: C_8  and  N_9
REMARK    6  A    between atoms: N_12  and  C_15
REMARK    7  A    between atoms: C_18  and  C_21
REMARK    8  A    between atoms: N_23  and  S_24
REMARK    9  A    between atoms: S_24  and  C_27
REMARK   10  A    between atoms: C_29  and  S_51
REMARK   11  A    between atoms: C_30  and  N_33
REMARK   12  A    between atoms: N_33  and  C_34
REMARK   13  A    between atoms: C_34  and  C_35
REMARK   14  A    between atoms: C_34  and  C_43
REMARK   15  A    between atoms: C_35  and  C_36
REMARK   16  A    between atoms: C_36  and  N_37
REMARK   17  A    between atoms: C_43  and  S_44
REMARK   18  A    between atoms: S_44  and  C_45
REMARK   19  A    between atoms: S_51  and  C_54
REMARK                            x       y       z     vdW  Elec       q    Type
REMARK                         _______ _______ _______ _____ _____    ______ ____
ROOT
ATOM      1  S   UNL     1       8.393   7.199  -7.291  0.00  0.00    +0.000 S 
ATOM      2  O   UNL     1       9.811   6.922  -7.431  0.00  0.00    +0.000 OA
ATOM      3  O   UNL     1       7.576   7.493  -8.445  0.00  0.00    +0.000 OA
ENDROOT
BRANCH   1   4
ATOM      4  C   UNL     1       8.266   8.526  -6.118  0.00  0.00    +0.000 A 
ATOM      5  C   UNL     1       8.962   8.416  -4.919  0.00  0.00    +0.000 A 
ATOM      6  C   UNL     1       8.719   9.308  -3.875  0.00  0.00    +0.000 A 
ATOM      7  C   UNL     1       7.928  10.473  -4.088  0.00  0.00    +0.000 A 
ATOM      8  C   UNL     1       7.342  10.603  -5.369  0.00  0.00    +0.000 A 
ATOM      9  C   UNL     1       7.453   9.620  -6.358  0.00  0.00    +0.000 A 
BRANCH   6  10
ATOM     10  S   UNL     1       9.249   8.820  -2.220  0.00  0.00    +0.000 S 
ATOM     11  O   UNL     1      10.340   9.723  -1.886  0.00  0.00    +0.000 OA
ATOM     12  O   UNL     1       8.026   8.857  -1.425  0.00  0.00    +0.000 OA
BRANCH  10  13
ATOM     13  C   UNL     1       9.870   7.078  -2.230  0.00  0.00    +0.000 C 
ATOM     14  F   UNL     1       9.685   6.378  -3.388  0.00  0.00    +0.000 F 
ATOM     15  F   UNL     1      11.210   7.008  -1.972  0.00  0.00    +0.000 F 
ATOM     16  F   UNL     1       9.266   6.309  -1.274  0.00  0.00    +0.000 F 
ENDBRANCH  10  13
ENDBRANCH   6  10
BRANCH   7  17
ATOM     17  N   UNL     1       7.821  11.539  -3.180  0.00  0.00    +0.000 N 
ATOM     18  H   UNL     1       8.155  11.347  -2.232  0.00  0.00    +0.000 HD
BRANCH  17  19
ATOM     19  C   UNL     1       6.667  12.497  -3.183  0.00  0.00    +0.000 C 
BRANCH  19  20
ATOM     20  C   UNL     1       6.997  13.735  -2.299  0.00  0.00    +0.000 C 
BRANCH  20  21
ATOM     21  S   UNL     1       7.310  13.297  -0.549  0.00  0.00    +0.000 S 
BRANCH  21  22
ATOM     22  C   UNL     1       7.448  14.883   0.263  0.00  0.00    +0.000 A 
ATOM     23  C   UNL     1       7.065  14.932   1.610  0.00  0.00    +0.000 A 
ATOM     24  C   UNL     1       7.209  16.103   2.358  0.00  0.00    +0.000 A 
ATOM     25  C   UNL     1       7.744  17.242   1.765  0.00  0.00    +0.000 A 
ATOM     26  C   UNL     1       8.126  17.210   0.425  0.00  0.00    +0.000 A 
ATOM     27  C   UNL     1       7.981  16.035  -0.324  0.00  0.00    +0.000 A 
ENDBRANCH  21  22
ENDBRANCH  20  21
ENDBRANCH  19  20
BRANCH  19  28
ATOM     28  C   UNL     1       5.371  11.755  -2.772  0.00  0.00    +0.000 C 
BRANCH  28  29
ATOM     29  C   UNL     1       4.082  12.607  -2.755  0.00  0.00    +0.000 C 
BRANCH  29  30
ATOM     30  N   UNL     1       2.870  11.806  -2.487  0.00  0.00    +0.000 NA
ATOM     31  C   UNL     1       1.625  12.611  -2.527  0.00  0.00    +0.000 C 
ATOM     32  C   UNL     1       1.317  13.416  -1.246  0.00  0.00    +0.000 C 
ATOM     33  O   UNL     1       1.384  12.606  -0.066  0.00  0.00    +0.000 OA
ATOM     34  C   UNL     1       2.658  11.960   0.023  0.00  0.00    +0.000 C 
ATOM     35  C   UNL     1       2.891  11.068  -1.204  0.00  0.00    +0.000 C 
ENDBRANCH  29  30
ENDBRANCH  28  29
ENDBRANCH  19  28
ENDBRANCH  17  19
ENDBRANCH   7  17
ENDBRANCH   1   4
BRANCH   1  38
ATOM     36  C   UNL     1       6.504   5.813  -5.887  0.00  0.00    +0.000 C 
ATOM     37  O   UNL     1       5.765   6.773  -5.766  0.00  0.00    +0.000 OA
ATOM     38  N   UNL     1       7.767   5.883  -6.488  0.00  0.00    +0.000 N 
ATOM     39  H   UNL     1       8.463   5.159  -6.330  0.00  0.00    +0.000 HD
BRANCH  36  43
ATOM     40  C   UNL     1       5.502   1.993  -4.038  0.00  0.00    +0.000 A 
ATOM     41  C   UNL     1       6.356   2.085  -5.150  0.00  0.00    +0.000 A 
ATOM     42  C   UNL     1       6.669   3.304  -5.772  0.00  0.00    +0.000 A 
ATOM     43  C   UNL     1       6.125   4.492  -5.301  0.00  0.00    +0.000 A 
ATOM     44  C   UNL     1       5.215   4.432  -4.236  0.00  0.00    +0.000 A 
ATOM     45  C   UNL     1       4.913   3.200  -3.618  0.00  0.00    +0.000 A 
BRANCH  40  49
ATOM     46  N   UNL     1       5.270  -1.798  -1.938  0.00  0.00    +0.000 NA
ATOM     47  C   UNL     1       5.191  -0.496  -1.261  0.00  0.00    +0.000 C 
ATOM     48  C   UNL     1       4.659   0.705  -2.072  0.00  0.00    +0.000 C 
ATOM     49  N   UNL     1       5.334   0.778  -3.376  0.00  0.00    +0.000 N 
ATOM     50  C   UNL     1       5.253  -0.478  -4.150  0.00  0.00    +0.000 C 
ATOM     51  C   UNL     1       5.670  -1.725  -3.337  0.00  0.00    +0.000 C 
BRANCH  46  52
ATOM     52  C   UNL     1       4.285  -2.830  -1.661  0.00  0.00    +0.000 C 
BRANCH  52  58
ATOM     53  C   UNL     1       5.567  -5.244   2.392  0.00  0.00    +0.000 C 
ATOM     54  C   UNL     1       5.278  -3.773   1.972  0.00  0.00    +0.000 C 
ATOM     55  C   UNL     1       4.067  -3.211   2.742  0.00  0.00    +0.000 C 
ATOM     56  C   UNL     1       2.935  -2.445   1.982  0.00  0.00    +0.000 C 
ATOM     57  C   UNL     1       2.926  -2.315   0.455  0.00  0.00    +0.000 C 
ATOM     58  C   UNL     1       3.964  -2.913  -0.192  0.00  0.00    +0.000 C 
ATOM     59  C   UNL     1       5.065  -3.750   0.457  0.00  0.00    +0.000 C 
ATOM     60  C   UNL     1       6.579  -3.006   2.337  0.00  0.00    +0.000 C 
BRANCH  57  61
ATOM     61  C   UNL     1       1.784  -1.451  -0.190  0.00  0.00    +0.000 A 
ATOM     62  C   UNL     1       1.632  -1.197  -1.577  0.00  0.00    +0.000 A 
ATOM     63  C   UNL     1       0.587  -0.450  -2.164  0.00  0.00    +0.000 A 
ATOM     64  C   UNL     1      -0.371   0.125  -1.363  0.00  0.00    +0.000 A 
ATOM     65  C   UNL     1      -0.270  -0.046   0.011  0.00  0.00    +0.000 A 
ATOM     66  C   UNL     1       0.775  -0.818   0.583  0.00  0.00    +0.000 A 
ATOM     67 CL   UNL     1      -1.636   1.047  -2.074  0.00  0.00    +0.000 Cl
ENDBRANCH  57  61
ENDBRANCH  52  58
ENDBRANCH  46  52
ENDBRANCH  40  49
ENDBRANCH  36  43
ENDBRANCH   1  38
TORSDOF 17
