REMARK  Name = 
REMARK  11 active torsions:
REMARK  status: ('A' for Active; 'I' for Inactive)
REMARK    1  A    between atoms: C_6  and  C_9
REMARK    2  A    between atoms: CA_11  and  C_26
REMARK    3  A    between atoms: C_12  and  C_14
REMARK    4  A    between atoms: C_14  and  C_15
REMARK    5  A    between atoms: C_15  and  C_16
REMARK    6  A    between atoms: C_16  and  O_17
REMARK    7  A    between atoms: O_17  and  C_18
REMARK    8  A    between atoms: C_21  and  C_24
REMARK    9  A    between atoms: C_24  and  N_25
REMARK   10  A    between atoms: C_26  and  OXT_28
REMARK   11  A    between atoms: N_30  and  N_31
REMARK                            x       y       z     vdW  Elec       q    Type
REMARK                         _______ _______ _______ _____ _____    ______ ____
ROOT
ATOM      1  C   UNL     1      -3.426  -2.095  -0.118  0.00  0.00    +0.000 A 
ATOM      2  N   UNL     1      -4.713  -1.835  -0.194  0.00  0.00    +0.000 NA
ATOM      3  CA  UNL     1      -5.459  -3.025  -0.154  0.00  0.00    +0.000 A 
ATOM      4  C   UNL     1      -4.707  -4.184  -0.021  0.00  0.00    +0.000 A 
ATOM      5  S   UNL     1      -3.044  -3.765  -0.029  0.00  0.00    +0.000 S 
ENDROOT
BRANCH   1  11
ATOM      6  C   UNL     1       1.998   1.523  -0.484  0.00  0.00    +0.000 C 
ATOM      7  C   UNL     1       0.706   1.991   0.182  0.00  0.00    +0.000 C 
ATOM      8  C   UNL     1      -0.369   0.950   0.043  0.00  0.00    +0.000 A 
ATOM      9  C   UNL     1      -0.034  -0.401   0.009  0.00  0.00    +0.000 A 
ATOM     10  C   UNL     1      -1.029  -1.383  -0.057  0.00  0.00    +0.000 A 
ATOM     11  C   UNL     1      -2.381  -1.051  -0.086  0.00  0.00    +0.000 A 
ATOM     12  C   UNL     1      -2.717   0.308  -0.064  0.00  0.00    +0.000 A 
ATOM     13  C   UNL     1      -1.724   1.298   0.006  0.00  0.00    +0.000 A 
ATOM     14  C   UNL     1       1.385  -0.854   0.050  0.00  0.00    +0.000 C 
ATOM     15  N   UNL     1       1.555  -2.134   0.118  0.00  0.00    +0.000 NA
ATOM     16  C   UNL     1       2.476   0.191   0.086  0.00  0.00    +0.000 C 
BRANCH  15  17
ATOM     17  N   UNL     1       2.759  -2.717   0.177  0.00  0.00    +0.000 N 
ATOM     18  C   UNL     1       2.883  -4.057   0.372  0.00  0.00    +0.000 A 
ATOM     19  N   UNL     1       4.044  -4.658   0.445  0.00  0.00    +0.000 NA
ATOM     20  C   UNL     1       3.866  -5.940   0.921  0.00  0.00    +0.000 A 
ATOM     21  C   UNL     1       4.900  -6.827   1.269  0.00  0.00    +0.000 A 
ATOM     22  C   UNL     1       4.562  -7.601   2.377  0.00  0.00    +0.000 A 
ATOM     23  C   UNL     1       3.275  -8.105   2.514  0.00  0.00    +0.000 A 
ATOM     24  C   UNL     1       2.239  -7.566   1.752  0.00  0.00    +0.000 A 
ATOM     25  C   UNL     1       2.546  -6.349   1.123  0.00  0.00    +0.000 A 
ATOM     26  S   UNL     1       1.512  -5.109   0.559  0.00  0.00    +0.000 S 
ATOM     27  H   UNL     1       3.624  -2.189   0.124  0.00  0.00    +0.000 HD
ENDBRANCH  15  17
ENDBRANCH   1  11
BRANCH   3  28
ATOM     28  C   UNL     1      -6.902  -2.893  -0.254  0.00  0.00    +0.000 C 
ATOM     29  O   UNL     1      -7.710  -3.835  -0.230  0.00  0.00    +0.000 OA
BRANCH  28  30
ATOM     30  OXT UNL     1      -7.292  -1.605  -0.409  0.00  0.00    +0.000 OA
ATOM     31  HXT UNL     1      -6.461  -1.066  -0.397  0.00  0.00    +0.000 HD
ENDBRANCH  28  30
ENDBRANCH   3  28
BRANCH   4  32
ATOM     32  C   UNL     1      -5.099  -5.635   0.072  0.00  0.00    +0.000 C 
BRANCH  32  33
ATOM     33  C   UNL     1      -4.553  -6.354   1.314  0.00  0.00    +0.000 C 
BRANCH  33  34
ATOM     34  C   UNL     1      -5.114  -5.821   2.632  0.00  0.00    +0.000 C 
BRANCH  34  35
ATOM     35  O   UNL     1      -4.521  -6.519   3.737  0.00  0.00    +0.000 OA
BRANCH  35  36
ATOM     36  C   UNL     1      -3.303  -6.058   4.161  0.00  0.00    +0.000 A 
ATOM     37  C   UNL     1      -2.956  -4.714   4.241  0.00  0.00    +0.000 A 
ATOM     38  C   UNL     1      -1.683  -4.338   4.676  0.00  0.00    +0.000 A 
ATOM     39  C   UNL     1      -0.732  -5.297   5.052  0.00  0.00    +0.000 A 
ATOM     40  C   UNL     1      -1.111  -6.648   5.023  0.00  0.00    +0.000 A 
ATOM     41  C   UNL     1      -2.389  -7.024   4.588  0.00  0.00    +0.000 A 
BRANCH  39  42
ATOM     42  C   UNL     1       0.667  -4.932   5.496  0.00  0.00    +0.000 C 
BRANCH  42  43
ATOM     43  N   UNL     1       0.961  -3.501   5.433  0.00  0.00    +0.000 NA
ATOM     44  H   UNL     1       0.880  -3.200   4.462  0.00  0.00    +0.000 HD
ATOM     45  H   UNL     1       1.935  -3.353   5.688  0.00  0.00    +0.000 HD
ENDBRANCH  42  43
ENDBRANCH  39  42
ENDBRANCH  35  36
ENDBRANCH  34  35
ENDBRANCH  33  34
ENDBRANCH  32  33
ENDBRANCH   4  32
TORSDOF 11
