MODEL 1
REMARK VINA RESULT:    -9.822      0.000      0.000
REMARK INTER + INTRA:         -10.109
REMARK INTER:                 -10.109
REMARK INTRA:                   0.000
REMARK UNBOUND:                 0.000
REMARK SMILES C[C@]12CC[C@H](O)[C@@H]1CC[C@@H]1[C@@H]2CC[C@]2(C)C(=O)CC[C@@H]12
REMARK SMILES IDX 15 1 14 2 13 3 12 4 11 5 10 6 9 7 8 8 7 9 2 10 3 11 4 12
REMARK SMILES IDX 5 13 1 14 20 15 19 16 18 17 16 18 17 19 6 20
REMARK H PARENT 6 21
ROOT
ATOM      1  C   UNL     1      28.635  -0.168   6.044  1.00  0.00     0.020 C 
ATOM      2  C   UNL     1      28.362  -0.132   4.532  1.00  0.00     0.029 C 
ATOM      3  C   UNL     1      29.022   1.088   3.886  1.00  0.00     0.015 C 
ATOM      4  C   UNL     1      28.301   2.385   4.302  1.00  0.00     0.005 C 
ATOM      5  C   UNL     1      26.756   2.334   4.125  1.00  0.00    -0.001 C 
ATOM      6  C   UNL     1      26.118   1.031   4.709  1.00  0.00    -0.003 C 
ATOM      7  C   UNL     1      24.598   0.948   4.455  1.00  0.00     0.004 C 
ATOM      8  C   UNL     1      23.849   2.219   4.893  1.00  0.00     0.007 C 
ATOM      9  C   UNL     1      24.507   3.420   4.229  1.00  0.00     0.024 C 
ATOM     10  C   UNL     1      26.001   3.584   4.630  1.00  0.00    -0.024 C 
ATOM     11  C   UNL     1      26.310   4.869   3.840  1.00  0.00     0.010 C 
ATOM     12  C   UNL     1      25.077   5.763   4.064  1.00  0.00     0.032 C 
ATOM     13  C   UNL     1      23.905   4.810   4.403  1.00  0.00     0.118 C 
ATOM     14  C   UNL     1      26.222   3.835   6.140  1.00  0.00     0.012 C 
ATOM     15  C   UNL     1      26.883  -0.136   4.083  1.00  0.00     0.006 C 
ATOM     16  C   UNL     1      26.361  -1.558   4.237  1.00  0.00     0.013 C 
ATOM     17  C   UNL     1      27.586  -2.462   4.082  1.00  0.00     0.076 C 
ATOM     18  C   UNL     1      28.742  -1.491   3.996  1.00  0.00     0.139 C 
ATOM     19  O   UNL     1      29.874  -1.801   3.628  1.00  0.00    -0.299 OA
ENDROOT
BRANCH  13  20
ATOM     20  O   UNL     1      23.403   4.990   5.719  1.00  0.00    -0.393 OA
ATOM     21  H   UNL     1      23.615   4.213   6.259  1.00  0.00     0.210 HD
ENDBRANCH  13  20
TORSDOF 1
ENDMDL
MODEL 2
REMARK VINA RESULT:    -9.780      0.852      6.173
REMARK INTER + INTRA:         -10.066
REMARK INTER:                 -10.066
REMARK INTRA:                   0.000
REMARK UNBOUND:                 0.000
REMARK SMILES C[C@]12CC[C@H](O)[C@@H]1CC[C@@H]1[C@@H]2CC[C@]2(C)C(=O)CC[C@@H]12
REMARK SMILES IDX 15 1 14 2 13 3 12 4 11 5 10 6 9 7 8 8 7 9 2 10 3 11 4 12
REMARK SMILES IDX 5 13 1 14 20 15 19 16 18 17 16 18 17 19 6 20
REMARK H PARENT 6 21
ROOT
ATOM      1  C   UNL     1      24.519   3.415   6.492  1.00  0.00     0.020 C 
ATOM      2  C   UNL     1      24.338   3.331   4.968  1.00  0.00     0.029 C 
ATOM      3  C   UNL     1      23.676   2.011   4.568  1.00  0.00     0.015 C 
ATOM      4  C   UNL     1      24.645   0.830   4.771  1.00  0.00     0.005 C 
ATOM      5  C   UNL     1      26.050   1.049   4.140  1.00  0.00    -0.001 C 
ATOM      6  C   UNL     1      26.662   2.446   4.486  1.00  0.00    -0.003 C 
ATOM      7  C   UNL     1      28.017   2.690   3.788  1.00  0.00     0.004 C 
ATOM      8  C   UNL     1      29.016   1.539   4.003  1.00  0.00     0.007 C 
ATOM      9  C   UNL     1      28.348   0.237   3.585  1.00  0.00     0.024 C 
ATOM     10  C   UNL     1      27.071  -0.077   4.417  1.00  0.00    -0.024 C 
ATOM     11  C   UNL     1      26.708  -1.429   3.776  1.00  0.00     0.010 C 
ATOM     12  C   UNL     1      28.055  -2.162   3.636  1.00  0.00     0.032 C 
ATOM     13  C   UNL     1      29.144  -1.064   3.594  1.00  0.00     0.118 C 
ATOM     14  C   UNL     1      27.337  -0.271   5.928  1.00  0.00     0.012 C 
ATOM     15  C   UNL     1      25.606   3.482   4.098  1.00  0.00     0.006 C 
ATOM     16  C   UNL     1      25.967   4.961   4.066  1.00  0.00     0.013 C 
ATOM     17  C   UNL     1      24.647   5.708   4.269  1.00  0.00     0.076 C 
ATOM     18  C   UNL     1      23.649   4.606   4.549  1.00  0.00     0.139 C 
ATOM     19  O   UNL     1      22.429   4.764   4.530  1.00  0.00    -0.299 OA
ENDROOT
BRANCH  13  20
ATOM     20  O   UNL     1      30.030  -1.115   4.703  1.00  0.00    -0.393 OA
ATOM     21  H   UNL     1      30.321  -0.217   4.930  1.00  0.00     0.210 HD
ENDBRANCH  13  20
TORSDOF 1
ENDMDL
MODEL 3
REMARK VINA RESULT:    -9.648      0.431      0.431
REMARK INTER + INTRA:          -9.930
REMARK INTER:                  -9.930
REMARK INTRA:                   0.000
REMARK UNBOUND:                 0.000
REMARK SMILES C[C@]12CC[C@H](O)[C@@H]1CC[C@@H]1[C@@H]2CC[C@]2(C)C(=O)CC[C@@H]12
REMARK SMILES IDX 15 1 14 2 13 3 12 4 11 5 10 6 9 7 8 8 7 9 2 10 3 11 4 12
REMARK SMILES IDX 5 13 1 14 20 15 19 16 18 17 16 18 17 19 6 20
REMARK H PARENT 6 21
ROOT
ATOM      1  C   UNL     1      28.205   0.071   6.346  1.00  0.00     0.020 C 
ATOM      2  C   UNL     1      28.102   0.135   4.813  1.00  0.00     0.029 C 
ATOM      3  C   UNL     1      28.844   1.354   4.265  1.00  0.00     0.015 C 
ATOM      4  C   UNL     1      28.097   2.655   4.620  1.00  0.00     0.005 C 
ATOM      5  C   UNL     1      26.581   2.628   4.272  1.00  0.00    -0.001 C 
ATOM      6  C   UNL     1      25.866   1.325   4.760  1.00  0.00    -0.003 C 
ATOM      7  C   UNL     1      24.383   1.268   4.338  1.00  0.00     0.004 C 
ATOM      8  C   UNL     1      23.605   2.541   4.712  1.00  0.00     0.007 C 
ATOM      9  C   UNL     1      24.347   3.744   4.145  1.00  0.00     0.024 C 
ATOM     10  C   UNL     1      25.790   3.881   4.712  1.00  0.00    -0.024 C 
ATOM     11  C   UNL     1      26.200   5.173   3.982  1.00  0.00     0.010 C 
ATOM     12  C   UNL     1      24.960   6.080   4.084  1.00  0.00     0.032 C 
ATOM     13  C   UNL     1      23.747   5.139   4.275  1.00  0.00     0.118 C 
ATOM     14  C   UNL     1      25.845   4.105   6.241  1.00  0.00     0.012 C 
ATOM     15  C   UNL     1      26.683   0.158   4.203  1.00  0.00     0.006 C 
ATOM     16  C   UNL     1      26.129  -1.260   4.275  1.00  0.00     0.013 C 
ATOM     17  C   UNL     1      27.352  -2.177   4.241  1.00  0.00     0.076 C 
ATOM     18  C   UNL     1      28.523  -1.221   4.300  1.00  0.00     0.139 C 
ATOM     19  O   UNL     1      29.685  -1.542   4.054  1.00  0.00    -0.299 OA
ENDROOT
BRANCH  13  20
ATOM     20  O   UNL     1      23.104   5.306   5.530  1.00  0.00    -0.393 OA
ATOM     21  H   UNL     1      23.140   6.238   5.794  1.00  0.00     0.210 HD
ENDBRANCH  13  20
TORSDOF 1
ENDMDL
MODEL 4
REMARK VINA RESULT:    -9.081      1.585      5.909
REMARK INTER + INTRA:          -9.347
REMARK INTER:                  -9.347
REMARK INTRA:                   0.000
REMARK UNBOUND:                 0.000
REMARK SMILES C[C@]12CC[C@H](O)[C@@H]1CC[C@@H]1[C@@H]2CC[C@]2(C)C(=O)CC[C@@H]12
REMARK SMILES IDX 15 1 14 2 13 3 12 4 11 5 10 6 9 7 8 8 7 9 2 10 3 11 4 12
REMARK SMILES IDX 5 13 1 14 20 15 19 16 18 17 16 18 17 19 6 20
REMARK H PARENT 6 21
ROOT
ATOM      1  C   UNL     1      26.554   5.589   3.312  1.00  0.00     0.020 C 
ATOM      2  C   UNL     1      26.019   5.357   4.735  1.00  0.00     0.029 C 
ATOM      3  C   UNL     1      27.151   4.976   5.690  1.00  0.00     0.015 C 
ATOM      4  C   UNL     1      27.672   3.558   5.384  1.00  0.00     0.005 C 
ATOM      5  C   UNL     1      26.552   2.484   5.270  1.00  0.00    -0.001 C 
ATOM      6  C   UNL     1      25.361   2.938   4.364  1.00  0.00    -0.003 C 
ATOM      7  C   UNL     1      24.217   1.903   4.324  1.00  0.00     0.004 C 
ATOM      8  C   UNL     1      24.705   0.484   3.987  1.00  0.00     0.007 C 
ATOM      9  C   UNL     1      25.819   0.115   4.956  1.00  0.00     0.024 C 
ATOM     10  C   UNL     1      27.040   1.076   4.864  1.00  0.00    -0.024 C 
ATOM     11  C   UNL     1      27.945   0.396   5.907  1.00  0.00     0.010 C 
ATOM     12  C   UNL     1      27.793  -1.110   5.625  1.00  0.00     0.032 C 
ATOM     13  C   UNL     1      26.425  -1.284   4.922  1.00  0.00     0.118 C 
ATOM     14  C   UNL     1      27.739   1.071   3.484  1.00  0.00     0.012 C 
ATOM     15  C   UNL     1      24.908   4.296   4.905  1.00  0.00     0.006 C 
ATOM     16  C   UNL     1      23.605   4.913   4.414  1.00  0.00     0.013 C 
ATOM     17  C   UNL     1      23.762   6.420   4.626  1.00  0.00     0.076 C 
ATOM     18  C   UNL     1      25.195   6.572   5.085  1.00  0.00     0.139 C 
ATOM     19  O   UNL     1      25.650   7.598   5.590  1.00  0.00    -0.299 OA
ENDROOT
BRANCH  13  20
ATOM     20  O   UNL     1      26.540  -1.760   3.589  1.00  0.00    -0.393 OA
ATOM     21  H   UNL     1      27.206  -1.240   3.112  1.00  0.00     0.210 HD
ENDBRANCH  13  20
TORSDOF 1
ENDMDL
MODEL 5
REMARK VINA RESULT:    -8.696      1.676      2.984
REMARK INTER + INTRA:          -8.950
REMARK INTER:                  -8.950
REMARK INTRA:                   0.000
REMARK UNBOUND:                 0.000
REMARK SMILES C[C@]12CC[C@H](O)[C@@H]1CC[C@@H]1[C@@H]2CC[C@]2(C)C(=O)CC[C@@H]12
REMARK SMILES IDX 15 1 14 2 13 3 12 4 11 5 10 6 9 7 8 8 7 9 2 10 3 11 4 12
REMARK SMILES IDX 5 13 1 14 20 15 19 16 18 17 16 18 17 19 6 20
REMARK H PARENT 6 21
ROOT
ATOM      1  C   UNL     1      27.678   0.609   3.180  1.00  0.00     0.020 C 
ATOM      2  C   UNL     1      26.765   0.447   4.407  1.00  0.00     0.029 C 
ATOM      3  C   UNL     1      25.296   0.626   4.022  1.00  0.00     0.015 C 
ATOM      4  C   UNL     1      24.995   2.098   3.680  1.00  0.00     0.005 C 
ATOM      5  C   UNL     1      25.496   3.110   4.749  1.00  0.00    -0.001 C 
ATOM      6  C   UNL     1      26.972   2.845   5.195  1.00  0.00    -0.003 C 
ATOM      7  C   UNL     1      27.434   3.800   6.316  1.00  0.00     0.004 C 
ATOM      8  C   UNL     1      27.176   5.280   5.984  1.00  0.00     0.007 C 
ATOM      9  C   UNL     1      25.707   5.444   5.621  1.00  0.00     0.024 C 
ATOM     10  C   UNL     1      25.298   4.598   4.380  1.00  0.00    -0.024 C 
ATOM     11  C   UNL     1      23.824   5.032   4.284  1.00  0.00     0.010 C 
ATOM     12  C   UNL     1      23.854   6.551   4.533  1.00  0.00     0.032 C 
ATOM     13  C   UNL     1      25.142   6.833   5.344  1.00  0.00     0.118 C 
ATOM     14  C   UNL     1      26.042   4.987   3.081  1.00  0.00     0.012 C 
ATOM     15  C   UNL     1      27.033   1.375   5.612  1.00  0.00     0.006 C 
ATOM     16  C   UNL     1      28.260   0.841   6.339  1.00  0.00     0.013 C 
ATOM     17  C   UNL     1      28.284  -0.661   6.050  1.00  0.00     0.076 C 
ATOM     18  C   UNL     1      27.157  -0.856   5.060  1.00  0.00     0.139 C 
ATOM     19  O   UNL     1      26.689  -1.953   4.760  1.00  0.00    -0.299 OA
ENDROOT
BRANCH  13  20
ATOM     20  O   UNL     1      26.078   7.638   4.642  1.00  0.00    -0.393 OA
ATOM     21  H   UNL     1      26.031   8.551   4.966  1.00  0.00     0.210 HD
ENDBRANCH  13  20
TORSDOF 1
ENDMDL
MODEL 6
REMARK VINA RESULT:    -8.572      1.359      6.284
REMARK INTER + INTRA:          -8.823
REMARK INTER:                  -8.823
REMARK INTRA:                   0.000
REMARK UNBOUND:                 0.000
REMARK SMILES C[C@]12CC[C@H](O)[C@@H]1CC[C@@H]1[C@@H]2CC[C@]2(C)C(=O)CC[C@@H]12
REMARK SMILES IDX 15 1 14 2 13 3 12 4 11 5 10 6 9 7 8 8 7 9 2 10 3 11 4 12
REMARK SMILES IDX 5 13 1 14 20 15 19 16 18 17 16 18 17 19 6 20
REMARK H PARENT 6 21
ROOT
ATOM      1  C   UNL     1      24.529   4.373   6.517  1.00  0.00     0.020 C 
ATOM      2  C   UNL     1      24.875   4.774   5.074  1.00  0.00     0.029 C 
ATOM      3  C   UNL     1      24.162   3.869   4.068  1.00  0.00     0.015 C 
ATOM      4  C   UNL     1      24.765   2.451   4.085  1.00  0.00     0.005 C 
ATOM      5  C   UNL     1      26.316   2.423   3.972  1.00  0.00    -0.001 C 
ATOM      6  C   UNL     1      27.017   3.428   4.944  1.00  0.00    -0.003 C 
ATOM      7  C   UNL     1      28.550   3.455   4.767  1.00  0.00     0.004 C 
ATOM      8  C   UNL     1      29.182   2.053   4.814  1.00  0.00     0.007 C 
ATOM      9  C   UNL     1      28.473   1.171   3.796  1.00  0.00     0.024 C 
ATOM     10  C   UNL     1      26.952   1.019   4.088  1.00  0.00    -0.024 C 
ATOM     11  C   UNL     1      26.591   0.066   2.935  1.00  0.00     0.010 C 
ATOM     12  C   UNL     1      27.744  -0.954   2.906  1.00  0.00     0.032 C 
ATOM     13  C   UNL     1      28.962  -0.252   3.551  1.00  0.00     0.118 C 
ATOM     14  C   UNL     1      26.637   0.341   5.442  1.00  0.00     0.012 C 
ATOM     15  C   UNL     1      26.370   4.790   4.687  1.00  0.00     0.006 C 
ATOM     16  C   UNL     1      26.986   6.049   5.284  1.00  0.00     0.013 C 
ATOM     17  C   UNL     1      25.839   7.057   5.382  1.00  0.00     0.076 C 
ATOM     18  C   UNL     1      24.621   6.259   4.972  1.00  0.00     0.139 C 
ATOM     19  O   UNL     1      23.535   6.761   4.688  1.00  0.00    -0.299 OA
ENDROOT
BRANCH  13  20
ATOM     20  O   UNL     1      29.384  -0.865   4.761  1.00  0.00    -0.393 OA
ATOM     21  H   UNL     1      29.989  -1.597   4.562  1.00  0.00     0.210 HD
ENDBRANCH  13  20
TORSDOF 1
ENDMDL
MODEL 7
REMARK VINA RESULT:    -8.428      1.388      5.880
REMARK INTER + INTRA:          -8.674
REMARK INTER:                  -8.674
REMARK INTRA:                   0.000
REMARK UNBOUND:                 0.000
REMARK SMILES C[C@]12CC[C@H](O)[C@@H]1CC[C@@H]1[C@@H]2CC[C@]2(C)C(=O)CC[C@@H]12
REMARK SMILES IDX 15 1 14 2 13 3 12 4 11 5 10 6 9 7 8 8 7 9 2 10 3 11 4 12
REMARK SMILES IDX 5 13 1 14 20 15 19 16 18 17 16 18 17 19 6 20
REMARK H PARENT 6 21
ROOT
ATOM      1  C   UNL     1      26.194   5.327   3.082  1.00  0.00     0.020 C 
ATOM      2  C   UNL     1      25.893   5.069   4.568  1.00  0.00     0.029 C 
ATOM      3  C   UNL     1      27.183   4.845   5.357  1.00  0.00     0.015 C 
ATOM      4  C   UNL     1      27.820   3.490   4.992  1.00  0.00     0.005 C 
ATOM      5  C   UNL     1      26.830   2.291   5.046  1.00  0.00    -0.001 C 
ATOM      6  C   UNL     1      25.479   2.583   4.313  1.00  0.00    -0.003 C 
ATOM      7  C   UNL     1      24.470   1.422   4.443  1.00  0.00     0.004 C 
ATOM      8  C   UNL     1      25.071   0.061   4.052  1.00  0.00     0.007 C 
ATOM      9  C   UNL     1      26.344  -0.154   4.858  1.00  0.00     0.024 C 
ATOM     10  C   UNL     1      27.418   0.939   4.586  1.00  0.00    -0.024 C 
ATOM     11  C   UNL     1      28.533   0.394   5.497  1.00  0.00     0.010 C 
ATOM     12  C   UNL     1      28.521  -1.126   5.252  1.00  0.00     0.032 C 
ATOM     13  C   UNL     1      27.100  -1.474   4.750  1.00  0.00     0.118 C 
ATOM     14  C   UNL     1      27.915   0.981   3.122  1.00  0.00     0.012 C 
ATOM     15  C   UNL     1      24.949   3.892   4.901  1.00  0.00     0.006 C 
ATOM     16  C   UNL     1      23.527   4.342   4.594  1.00  0.00     0.013 C 
ATOM     17  C   UNL     1      23.534   5.862   4.770  1.00  0.00     0.076 C 
ATOM     18  C   UNL     1      24.989   6.190   5.020  1.00  0.00     0.139 C 
ATOM     19  O   UNL     1      25.385   7.273   5.448  1.00  0.00    -0.299 OA
ENDROOT
BRANCH  13  20
ATOM     20  O   UNL     1      27.083  -1.966   3.418  1.00  0.00    -0.393 OA
ATOM     21  H   UNL     1      26.312  -1.612   2.948  1.00  0.00     0.210 HD
ENDBRANCH  13  20
TORSDOF 1
ENDMDL
MODEL 8
REMARK VINA RESULT:    -8.009      1.597      5.845
REMARK INTER + INTRA:          -8.243
REMARK INTER:                  -8.243
REMARK INTRA:                   0.000
REMARK UNBOUND:                 0.000
REMARK SMILES C[C@]12CC[C@H](O)[C@@H]1CC[C@@H]1[C@@H]2CC[C@]2(C)C(=O)CC[C@@H]12
REMARK SMILES IDX 15 1 14 2 13 3 12 4 11 5 10 6 9 7 8 8 7 9 2 10 3 11 4 12
REMARK SMILES IDX 5 13 1 14 20 15 19 16 18 17 16 18 17 19 6 20
REMARK H PARENT 6 21
ROOT
ATOM      1  C   UNL     1      27.519   5.472   3.788  1.00  0.00     0.020 C 
ATOM      2  C   UNL     1      26.671   5.187   5.039  1.00  0.00     0.029 C 
ATOM      3  C   UNL     1      27.531   4.604   6.161  1.00  0.00     0.015 C 
ATOM      4  C   UNL     1      27.971   3.166   5.823  1.00  0.00     0.005 C 
ATOM      5  C   UNL     1      26.806   2.238   5.372  1.00  0.00    -0.001 C 
ATOM      6  C   UNL     1      25.885   2.896   4.293  1.00  0.00    -0.003 C 
ATOM      7  C   UNL     1      24.685   2.004   3.912  1.00  0.00     0.004 C 
ATOM      8  C   UNL     1      25.100   0.571   3.537  1.00  0.00     0.007 C 
ATOM      9  C   UNL     1      25.940   0.000   4.671  1.00  0.00     0.024 C 
ATOM     10  C   UNL     1      27.236   0.821   4.931  1.00  0.00    -0.024 C 
ATOM     11  C   UNL     1      27.829  -0.039   6.062  1.00  0.00     0.010 C 
ATOM     12  C   UNL     1      27.601  -1.490   5.600  1.00  0.00     0.032 C 
ATOM     13  C   UNL     1      26.406  -1.451   4.617  1.00  0.00     0.118 C 
ATOM     14  C   UNL     1      28.212   0.849   3.731  1.00  0.00     0.012 C 
ATOM     15  C   UNL     1      25.456   4.248   4.866  1.00  0.00     0.006 C 
ATOM     16  C   UNL     1      24.352   5.046   4.186  1.00  0.00     0.013 C 
ATOM     17  C   UNL     1      24.600   6.503   4.580  1.00  0.00     0.076 C 
ATOM     18  C   UNL     1      25.909   6.455   5.336  1.00  0.00     0.139 C 
ATOM     19  O   UNL     1      26.338   7.378   6.027  1.00  0.00    -0.299 OA
ENDROOT
BRANCH  13  20
ATOM     20  O   UNL     1      26.760  -1.827   3.294  1.00  0.00    -0.393 OA
ATOM     21  H   UNL     1      26.742  -1.047   2.717  1.00  0.00     0.210 HD
ENDBRANCH  13  20
TORSDOF 1
ENDMDL
MODEL 9
REMARK VINA RESULT:    -7.347      1.488      1.878
REMARK INTER + INTRA:          -7.562
REMARK INTER:                  -7.562
REMARK INTRA:                   0.000
REMARK UNBOUND:                 0.000
REMARK SMILES C[C@]12CC[C@H](O)[C@@H]1CC[C@@H]1[C@@H]2CC[C@]2(C)C(=O)CC[C@@H]12
REMARK SMILES IDX 15 1 14 2 13 3 12 4 11 5 10 6 9 7 8 8 7 9 2 10 3 11 4 12
REMARK SMILES IDX 5 13 1 14 20 15 19 16 18 17 16 18 17 19 6 20
REMARK H PARENT 6 21
ROOT
ATOM      1  C   UNL     1      27.122  -0.528   5.616  1.00  0.00     0.020 C 
ATOM      2  C   UNL     1      28.216   0.107   4.741  1.00  0.00     0.029 C 
ATOM      3  C   UNL     1      29.117   1.023   5.570  1.00  0.00     0.015 C 
ATOM      4  C   UNL     1      28.361   2.299   5.990  1.00  0.00     0.005 C 
ATOM      5  C   UNL     1      27.635   3.019   4.818  1.00  0.00    -0.001 C 
ATOM      6  C   UNL     1      26.797   2.042   3.928  1.00  0.00    -0.003 C 
ATOM      7  C   UNL     1      26.149   2.748   2.719  1.00  0.00     0.004 C 
ATOM      8  C   UNL     1      25.359   4.008   3.115  1.00  0.00     0.007 C 
ATOM      9  C   UNL     1      26.274   4.916   3.925  1.00  0.00     0.024 C 
ATOM     10  C   UNL     1      26.787   4.243   5.231  1.00  0.00    -0.024 C 
ATOM     11  C   UNL     1      27.608   5.420   5.787  1.00  0.00     0.010 C 
ATOM     12  C   UNL     1      26.722   6.655   5.542  1.00  0.00     0.032 C 
ATOM     13  C   UNL     1      25.785   6.291   4.366  1.00  0.00     0.118 C 
ATOM     14  C   UNL     1      25.664   3.872   6.228  1.00  0.00     0.012 C 
ATOM     15  C   UNL     1      27.752   0.921   3.513  1.00  0.00     0.006 C 
ATOM     16  C   UNL     1      27.335  -0.072   2.435  1.00  0.00     0.013 C 
ATOM     17  C   UNL     1      28.158  -1.333   2.702  1.00  0.00     0.076 C 
ATOM     18  C   UNL     1      28.878  -1.027   3.996  1.00  0.00     0.139 C 
ATOM     19  O   UNL     1      29.822  -1.685   4.429  1.00  0.00    -0.299 OA
ENDROOT
BRANCH  13  20
ATOM     20  O   UNL     1      24.414   6.253   4.736  1.00  0.00    -0.393 OA
ATOM     21  H   UNL     1      23.866   6.134   3.945  1.00  0.00     0.210 HD
ENDBRANCH  13  20
TORSDOF 1
ENDMDL
