REMARK SMILES C[C@]12CC[C@H](O)[C@@H]1CC[C@@H]1[C@@H]2CC[C@]2(C)C(=O)CC[C@@H]12
REMARK SMILES IDX 15 1 14 2 13 3 12 4 11 5 10 6 9 7 8 8 7 9 2 10 3 11 4 12
REMARK SMILES IDX 5 13 1 14 20 15 19 16 18 17 16 18 17 19 6 20
REMARK H PARENT 6 21
ROOT
ATOM      1  C   UNL     1       3.168  -2.083  -0.220  1.00  0.00     0.020 C 
ATOM      2  C   UNL     1       2.615  -0.916   0.615  1.00  0.00     0.029 C 
ATOM      3  C   UNL     1       1.979  -1.423   1.910  1.00  0.00     0.015 C 
ATOM      4  C   UNL     1       0.662  -2.168   1.618  1.00  0.00     0.005 C 
ATOM      5  C   UNL     1      -0.317  -1.384   0.698  1.00  0.00    -0.001 C 
ATOM      6  C   UNL     1       0.380  -0.794  -0.572  1.00  0.00    -0.003 C 
ATOM      7  C   UNL     1      -0.578   0.053  -1.436  1.00  0.00     0.004 C 
ATOM      8  C   UNL     1      -1.888  -0.681  -1.771  1.00  0.00     0.007 C 
ATOM      9  C   UNL     1      -2.516  -1.164  -0.471  1.00  0.00     0.024 C 
ATOM     10  C   UNL     1      -1.600  -2.152   0.308  1.00  0.00    -0.024 C 
ATOM     11  C   UNL     1      -2.540  -2.451   1.490  1.00  0.00     0.010 C 
ATOM     12  C   UNL     1      -3.927  -2.620   0.844  1.00  0.00     0.032 C 
ATOM     13  C   UNL     1      -3.883  -1.839  -0.491  1.00  0.00     0.118 C 
ATOM     14  C   UNL     1      -1.293  -3.460  -0.458  1.00  0.00     0.012 C 
ATOM     15  C   UNL     1       1.580   0.008  -0.065  1.00  0.00     0.006 C 
ATOM     16  C   UNL     1       2.338   0.925  -1.016  1.00  0.00     0.013 C 
ATOM     17  C   UNL     1       3.743   1.054  -0.425  1.00  0.00     0.076 C 
ATOM     18  C   UNL     1       3.735   0.088   0.739  1.00  0.00     0.139 C 
ATOM     19  O   UNL     1       4.593   0.067   1.620  1.00  0.00    -0.299 OA
ENDROOT
BRANCH  13  20
ATOM     20  O   UNL     1      -4.026  -2.674  -1.631  1.00  0.00    -0.393 OA
ATOM     21  H   UNL     1      -4.132  -3.596  -1.349  1.00  0.00     0.210 HD
ENDBRANCH  13  20
TORSDOF 1
