REMARK  Name = 
REMARK  3 active torsions:
REMARK  status: ('A' for Active; 'I' for Inactive)
REMARK    1  A    between atoms: O_1  and  C_2
REMARK    2  A    between atoms: C_2  and  C_4
REMARK    3  A    between atoms: C_7  and  N_10
REMARK                            x       y       z     vdW  Elec       q    Type
REMARK                         _______ _______ _______ _____ _____    ______ ____
ROOT
ATOM      1  C   UNL     1       3.170  -1.271   0.228  0.00  0.00    +0.000 A 
ATOM      2  C   UNL     1       2.775  -2.345  -0.576  0.00  0.00    +0.000 A 
ATOM      3  C   UNL     1       3.469  -3.561  -0.521  0.00  0.00    +0.000 A 
ATOM      4  C   UNL     1       4.541  -3.736   0.363  0.00  0.00    +0.000 A 
ATOM      5  C   UNL     1       4.932  -2.646   1.155  0.00  0.00    +0.000 A 
ATOM      6  C   UNL     1       4.249  -1.426   1.102  0.00  0.00    +0.000 A 
ENDROOT
BRANCH   4   7
ATOM      7  N   UNL     1       5.270  -4.932   0.463  0.00  0.00    +0.000 N 
ATOM      8  C   UNL     1       5.298  -5.984  -0.388  0.00  0.00    +0.000 C 
ATOM      9  N   UNL     1       5.261  -5.968  -1.672  0.00  0.00    +0.000 NA
ATOM     10  N   UNL     1       5.431  -7.171   0.245  0.00  0.00    +0.000 N 
ATOM     11  H   UNL     1       5.684  -5.107   1.369  0.00  0.00    +0.000 HD
ATOM     12  H   UNL     1       5.239  -4.989  -1.974  0.00  0.00    +0.000 HD
ATOM     13  H   UNL     1       4.712  -7.326   0.941  0.00  0.00    +0.000 HD
ATOM     14  H   UNL     1       5.397  -7.915  -0.448  0.00  0.00    +0.000 HD
ENDBRANCH   4   7
BRANCH   1  15
ATOM     15  C   UNL     1       2.385  -0.012   0.165  0.00  0.00    +0.000 C 
ATOM     16  O   UNL     1       1.189   0.012  -0.064  0.00  0.00    +0.000 OA
BRANCH  15  17
ATOM     17  O   UNL     1       3.126   1.100   0.354  0.00  0.00    +0.000 OA
ATOM     18  H   UNL     1       4.090   0.963   0.337  0.00  0.00    +0.000 HD
ENDBRANCH  15  17
ENDBRANCH   1  15
TORSDOF 3
