REMARK  Name = 
REMARK  5 active torsions:
REMARK  status: ('A' for Active; 'I' for Inactive)
REMARK    1  A    between atoms: O_1  and  C_2
REMARK    2  A    between atoms: C_2  and  C_4
REMARK    3  A    between atoms: C_4  and  O_5
REMARK    4  A    between atoms: C_4  and  C_6
REMARK    5  A    between atoms: C_9  and  O_10
REMARK                            x       y       z     vdW  Elec       q    Type
REMARK                         _______ _______ _______ _____ _____    ______ ____
ROOT
ATOM      1  C   UNL     1       4.588   0.535  -0.732  0.00  0.00    +0.000 A 
ATOM      2  C   UNL     1       5.223  -0.720  -0.659  0.00  0.00    +0.000 A 
ATOM      3  C   UNL     1       6.608  -0.827  -0.503  0.00  0.00    +0.000 A 
ATOM      4  C   UNL     1       7.377   0.326  -0.431  0.00  0.00    +0.000 A 
ATOM      5  C   UNL     1       6.783   1.577  -0.526  0.00  0.00    +0.000 A 
ATOM      6  C   UNL     1       5.397   1.683  -0.686  0.00  0.00    +0.000 A 
ENDROOT
BRANCH   4   7
ATOM      7  O   UNL     1       8.729   0.271  -0.274  0.00  0.00    +0.000 OA
ATOM      8  H   UNL     1       8.993  -0.659  -0.191  0.00  0.00    +0.000 HD
ENDBRANCH   4   7
BRANCH   1   9
ATOM      9  C   UNL     1       3.082   0.592  -0.926  0.00  0.00    +0.000 C 
BRANCH   9  10
ATOM     10  C   UNL     1       2.253  -0.110   0.171  0.00  0.00    +0.000 C 
ATOM     11  O   UNL     1       2.592  -1.063   0.854  0.00  0.00    +0.000 OA
BRANCH  10  12
ATOM     12  O   UNL     1       1.013   0.452   0.277  0.00  0.00    +0.000 OA
ATOM     13  H   UNL     1       0.954   1.205  -0.356  0.00  0.00    +0.000 HD
ENDBRANCH  10  12
ENDBRANCH   9  10
BRANCH   9  14
ATOM     14  O   UNL     1       2.569   1.937  -1.007  0.00  0.00    +0.000 OA
ATOM     15  H   UNL     1       2.935   2.415  -0.239  0.00  0.00    +0.000 HD
ENDBRANCH   9  14
ENDBRANCH   1   9
TORSDOF 5
