REMARK  Name = 
REMARK  4 active torsions:
REMARK  status: ('A' for Active; 'I' for Inactive)
REMARK    1  A    between atoms: C_7  and  O_11
REMARK    2  A    between atoms: C_8  and  O_10
REMARK    3  A    between atoms: C_15  and  O_20
REMARK    4  A    between atoms: C_16  and  O_19
REMARK                            x       y       z     vdW  Elec       q    Type
REMARK                         _______ _______ _______ _____ _____    ______ ____
ROOT
ATOM      1  C   UNL     1      -2.704   0.906  -0.002  0.00  0.00    +0.000 A 
ATOM      2  C   UNL     1      -1.363   0.842  -0.003  0.00  0.00    +0.000 A 
ATOM      3  C   UNL     1      -0.666  -0.442  -0.003  0.00  0.00    +0.000 A 
ATOM      4  C   UNL     1       0.683  -0.416  -0.004  0.00  0.00    +0.000 A 
ATOM      5  C   UNL     1       1.433   0.831  -0.005  0.00  0.00    +0.000 A 
ATOM      6  C   UNL     1       2.774   0.852  -0.005  0.00  0.00    +0.000 A 
ATOM      7  C   UNL     1       3.492  -0.393  -0.003  0.00  0.00    +0.000 A 
ATOM      8  C   UNL     1       2.818  -1.555  -0.003  0.00  0.00    +0.000 A 
ATOM      9  O   UNL     1       1.431  -1.598  -0.004  0.00  0.00    +0.000 OA
ATOM     10  O   UNL     1       0.725   2.051  -0.006  0.00  0.00    +0.000 OA
ATOM     11  C   UNL     1      -0.634   2.133  -0.004  0.00  0.00    +0.000 A 
ATOM     12  O   UNL     1      -1.206   3.217  -0.003  0.00  0.00    +0.000 OA
ATOM     13  C   UNL     1      -1.472  -1.671  -0.001  0.00  0.00    +0.000 A 
ATOM     14  C   UNL     1      -2.814  -1.634   0.002  0.00  0.00    +0.000 A 
ATOM     15  C   UNL     1      -3.531  -0.322  -0.000  0.00  0.00    +0.000 A 
ATOM     16  O   UNL     1      -4.753  -0.229   0.000  0.00  0.00    +0.000 OA
ENDROOT
BRANCH   8  17
ATOM     17  O   UNL     1       3.494  -2.756  -0.001  0.00  0.00    +0.000 OA
ATOM     18  H   UNL     1       4.442  -2.518   0.000  0.00  0.00    +0.000 HD
ENDBRANCH   8  17
BRANCH   7  19
ATOM     19  O   UNL     1       4.869  -0.363  -0.002  0.00  0.00    +0.000 OA
ATOM     20  H   UNL     1       5.166   0.564  -0.002  0.00  0.00    +0.000 HD
ENDBRANCH   7  19
BRANCH  14  21
ATOM     21  O   UNL     1      -3.558  -2.804   0.006  0.00  0.00    +0.000 OA
ATOM     22  H   UNL     1      -2.903  -3.530   0.010  0.00  0.00    +0.000 HD
ENDBRANCH  14  21
BRANCH  13  23
ATOM     23  O   UNL     1      -0.857  -2.917  -0.000  0.00  0.00    +0.000 OA
ATOM     24  H   UNL     1       0.114  -2.806  -0.008  0.00  0.00    +0.000 HD
ENDBRANCH  13  23
TORSDOF 4
