REMARK  Name = 
REMARK  5 active torsions:
REMARK  status: ('A' for Active; 'I' for Inactive)
REMARK    1  A    between atoms: O_1  and  C_2
REMARK    2  A    between atoms: C_2  and  C_4
REMARK    3  A    between atoms: C_6  and  O_7
REMARK    4  A    between atoms: C_8  and  O_9
REMARK    5  A    between atoms: C_10  and  O_11
REMARK                            x       y       z     vdW  Elec       q    Type
REMARK                         _______ _______ _______ _____ _____    ______ ____
ROOT
ATOM      1  C   UNL     1       3.176   0.664  -1.261  0.00  0.00    +0.000 A 
ATOM      2  C   UNL     1       2.753   1.928  -1.711  0.00  0.00    +0.000 A 
ATOM      3  C   UNL     1       3.378   2.502  -2.813  0.00  0.00    +0.000 A 
ATOM      4  C   UNL     1       4.406   1.827  -3.462  0.00  0.00    +0.000 A 
ATOM      5  C   UNL     1       4.807   0.571  -3.024  0.00  0.00    +0.000 A 
ATOM      6  C   UNL     1       4.193  -0.028  -1.932  0.00  0.00    +0.000 A 
ENDROOT
BRANCH   1   7
ATOM      7  C   UNL     1       2.489   0.085  -0.082  0.00  0.00    +0.000 C 
ATOM      8  O   UNL     1       1.321   0.322   0.177  0.00  0.00    +0.000 OA
BRANCH   7   9
ATOM      9  O   UNL     1       3.286  -0.667   0.704  0.00  0.00    +0.000 OA
ATOM     10  H   UNL     1       4.235  -0.652   0.480  0.00  0.00    +0.000 HD
ENDBRANCH   7   9
ENDBRANCH   1   7
BRANCH   3  11
ATOM     11  O   UNL     1       3.020   3.729  -3.295  0.00  0.00    +0.000 OA
ATOM     12  H   UNL     1       2.282   4.070  -2.758  0.00  0.00    +0.000 HD
ENDBRANCH   3  11
BRANCH   4  13
ATOM     13  O   UNL     1       5.031   2.382  -4.543  0.00  0.00    +0.000 OA
ATOM     14  H   UNL     1       4.576   3.240  -4.674  0.00  0.00    +0.000 HD
ENDBRANCH   4  13
BRANCH   5  15
ATOM     15  O   UNL     1       5.811  -0.092  -3.667  0.00  0.00    +0.000 OA
ATOM     16  H   UNL     1       6.079   0.506  -4.395  0.00  0.00    +0.000 HD
ENDBRANCH   5  15
TORSDOF 5
