REMARK  Name = 
REMARK  14 active torsions:
REMARK  status: ('A' for Active; 'I' for Inactive)
REMARK    1  A    between atoms: C_1  and  O_2
REMARK    2  A    between atoms: O_2  and  C_3
REMARK    3  A    between atoms: C_5  and  O_45
REMARK    4  A    between atoms: C_8  and  C_9
REMARK    5  A    between atoms: C_14  and  S_38
REMARK    6  A    between atoms: C_15  and  N_19
REMARK    7  A    between atoms: N_19  and  C_20
REMARK    8  A    between atoms: C_22  and  O_29
REMARK    9  A    between atoms: C_24  and  C_26
REMARK   10  A    between atoms: C_26  and  O_28
REMARK   11  A    between atoms: O_29  and  C_30
REMARK   12  A    between atoms: S_38  and  N_41
REMARK   13  A    between atoms: N_41  and  C_42
REMARK   14  A    between atoms: O_45  and  C_46
REMARK                            x       y       z     vdW  Elec       q    Type
REMARK                         _______ _______ _______ _____ _____    ______ ____
ROOT
ATOM      1  C   UNL     1       1.638  -2.706   0.538  0.00  0.00    +0.000 A 
ATOM      2  C   UNL     1       0.544  -3.302   1.193  0.00  0.00    +0.000 A 
ATOM      3  C   UNL     1      -0.615  -3.703   0.527  0.00  0.00    +0.000 A 
ATOM      4  N   UNL     1      -1.600  -4.254   1.249  0.00  0.00    +0.000 NA
ATOM      5  C   UNL     1      -2.711  -4.680   0.607  0.00  0.00    +0.000 A 
ATOM      6  C   UNL     1      -2.902  -4.549  -0.753  0.00  0.00    +0.000 A 
ATOM      7  C   UNL     1      -1.889  -3.976  -1.536  0.00  0.00    +0.000 A 
ATOM      8  C   UNL     1      -0.706  -3.531  -0.870  0.00  0.00    +0.000 A 
ATOM      9  C   UNL     1       0.407  -2.978  -1.534  0.00  0.00    +0.000 A 
ATOM     10  C   UNL     1       1.537  -2.545  -0.844  0.00  0.00    +0.000 A 
ENDROOT
BRANCH   1  16
ATOM     11  C   UNL     1       4.146  -2.324   0.842  0.00  0.00    +0.000 A 
ATOM     12  N   UNL     1       5.202  -1.795   1.490  0.00  0.00    +0.000 NA
ATOM     13  C   UNL     1       4.939  -1.170   2.638  0.00  0.00    +0.000 A 
ATOM     14  N   UNL     1       3.723  -1.020   3.178  0.00  0.00    +0.000 NA
ATOM     15  C   UNL     1       2.700  -1.546   2.475  0.00  0.00    +0.000 A 
ATOM     16  C   UNL     1       2.823  -2.220   1.271  0.00  0.00    +0.000 A 
BRANCH  11  18
ATOM     17  C   UNL     1       5.786  -3.175  -0.623  0.00  0.00    +0.000 C 
ATOM     18  O   UNL     1       4.399  -3.040  -0.317  0.00  0.00    +0.000 OA
ENDBRANCH  11  18
BRANCH  13  19
ATOM     19  O   UNL     1       6.046  -0.659   3.277  0.00  0.00    +0.000 OA
ATOM     20  C   UNL     1       5.741  -0.111   4.551  0.00  0.00    +0.000 C 
ENDBRANCH  13  19
ENDBRANCH   1  16
BRANCH   6  21
ATOM     21  S   UNL     1      -4.376  -5.220  -1.433  0.00  0.00    +0.000 S 
ATOM     22  O   UNL     1      -3.991  -6.000  -2.593  0.00  0.00    +0.000 OA
ATOM     23  O   UNL     1      -5.168  -5.804  -0.372  0.00  0.00    +0.000 OA
BRANCH  21  24
ATOM     24  N   UNL     1      -5.211  -3.887  -2.035  0.00  0.00    +0.000 NA
ATOM     25  H   UNL     1      -5.710  -4.118  -2.896  0.00  0.00    +0.000 HD
BRANCH  24  26
ATOM     26  C   UNL     1      -5.873  -2.993  -1.093  0.00  0.00    +0.000 C 
ATOM     27  C   UNL     1      -6.586  -1.769  -1.599  0.00  0.00    +0.000 C 
ATOM     28  C   UNL     1      -5.307  -1.626  -0.828  0.00  0.00    +0.000 C 
ENDBRANCH  24  26
ENDBRANCH  21  24
ENDBRANCH   6  21
BRANCH   7  29
ATOM     29  N   UNL     1      -2.051  -3.848  -2.938  0.00  0.00    +0.000 N 
ATOM     30  H   UNL     1      -2.552  -4.637  -3.360  0.00  0.00    +0.000 HD
BRANCH  29  31
ATOM     31  C   UNL     1      -1.910  -2.755  -3.817  0.00  0.00    +0.000 A 
ATOM     32  C   UNL     1      -1.774  -1.423  -3.399  0.00  0.00    +0.000 A 
ATOM     33  C   UNL     1      -1.576  -0.393  -4.330  0.00  0.00    +0.000 A 
ATOM     34  C   UNL     1      -1.565  -0.680  -5.697  0.00  0.00    +0.000 A 
ATOM     35  C   UNL     1      -1.614  -2.007  -6.123  0.00  0.00    +0.000 A 
ATOM     36  C   UNL     1      -1.789  -3.033  -5.186  0.00  0.00    +0.000 A 
BRANCH  35  37
ATOM     37  C   UNL     1      -1.520  -2.374  -7.556  0.00  0.00    +0.000 C 
ATOM     38  O   UNL     1      -2.066  -3.363  -8.014  0.00  0.00    +0.000 OA
BRANCH  37  39
ATOM     39  O   UNL     1      -0.751  -1.548  -8.295  0.00  0.00    +0.000 OA
ATOM     40  H   UNL     1      -0.218  -0.898  -7.802  0.00  0.00    +0.000 HD
ENDBRANCH  37  39
ENDBRANCH  35  37
BRANCH  33  41
ATOM     41  O   UNL     1      -1.437   0.887  -3.824  0.00  0.00    +0.000 OA
BRANCH  41  42
ATOM     42  C   UNL     1      -0.683   1.796  -4.538  0.00  0.00    +0.000 A 
ATOM     43  C   UNL     1      -1.194   3.088  -4.669  0.00  0.00    +0.000 A 
ATOM     44  C   UNL     1      -0.491   4.029  -5.420  0.00  0.00    +0.000 A 
ATOM     45  C   UNL     1       0.710   3.708  -6.037  0.00  0.00    +0.000 A 
ATOM     46  C   UNL     1       1.227   2.432  -5.864  0.00  0.00    +0.000 A 
ATOM     47  C   UNL     1       0.559   1.481  -5.098  0.00  0.00    +0.000 A 
ATOM     48  F   UNL     1       2.377   2.097  -6.463  0.00  0.00    +0.000 F 
ATOM     49  F   UNL     1      -0.993   5.262  -5.563  0.00  0.00    +0.000 F 
ENDBRANCH  41  42
ENDBRANCH  33  41
ENDBRANCH  29  31
ENDBRANCH   7  29
TORSDOF 12
