REMARK  Name = 
REMARK  3 active torsions:
REMARK  status: ('A' for Active; 'I' for Inactive)
REMARK    1  A    between atoms: C_2  and  O_3
REMARK    2  A    between atoms: C_2  and  C_4
REMARK    3  A    between atoms: C_11  and  O_12
REMARK                            x       y       z     vdW  Elec       q    Type
REMARK                         _______ _______ _______ _____ _____    ______ ____
ROOT
ATOM      1  C   UNL     1       3.078  -1.341  -0.380  0.00  0.00    +0.000 C 
ATOM      2  C   UNL     1       4.324  -1.695   0.343  0.00  0.00    +0.000 C 
ATOM      3  C   UNL     1       5.313  -2.407  -0.241  0.00  0.00    +0.000 C 
ATOM      4  C   UNL     1       5.056  -2.867  -1.571  0.00  0.00    +0.000 C 
ATOM      5  N   UNL     1       5.867  -3.554  -2.405  0.00  0.00    +0.000 N 
ATOM      6  C   UNL     1       5.159  -3.948  -3.524  0.00  0.00    +0.000 C 
ATOM      7  O   UNL     1       5.553  -4.561  -4.499  0.00  0.00    +0.000 OA
ATOM      8  C   UNL     1       3.758  -3.450  -3.333  0.00  0.00    +0.000 C 
ATOM      9  C   UNL     1       3.753  -2.766  -2.184  0.00  0.00    +0.000 C 
ATOM     10  C   UNL     1       2.753  -1.928  -1.560  0.00  0.00    +0.000 C 
ATOM     11  H   UNL     1       6.845  -3.756  -2.264  0.00  0.00    +0.000 HD
ENDROOT
BRANCH   1  13
ATOM     12  O   UNL     1       0.958  -0.250  -0.105  0.00  0.00    +0.000 OA
ATOM     13  C   UNL     1       2.155  -0.289   0.128  0.00  0.00    +0.000 C 
BRANCH  13  14
ATOM     14  O   UNL     1       2.791   0.675   0.831  0.00  0.00    +0.000 OA
ATOM     15  H   UNL     1       3.764   0.638   0.780  0.00  0.00    +0.000 HD
ENDBRANCH  13  14
ENDBRANCH   1  13
BRANCH   8  16
ATOM     16  O   UNL     1       2.749  -3.652  -4.227  0.00  0.00    +0.000 OA
ATOM     17  H   UNL     1       3.124  -4.248  -4.907  0.00  0.00    +0.000 HD
ENDBRANCH   8  16
TORSDOF 3
