REMARK  Name = 
REMARK  2 active torsions:
REMARK  status: ('A' for Active; 'I' for Inactive)
REMARK    1  A    between atoms: O_1  and  C_2
REMARK    2  A    between atoms: C_2  and  C_4
REMARK                            x       y       z     vdW  Elec       q    Type
REMARK                         _______ _______ _______ _____ _____    ______ ____
ROOT
ATOM      1  C   UNL     1       3.151  -0.866  -0.875  0.00  0.00    +0.000 C 
ATOM      2  O   UNL     1       2.450  -1.587  -1.571  0.00  0.00    +0.000 OA
ATOM      3  N   UNL     1       4.516  -0.859  -0.869  0.00  0.00    +0.000 N 
ATOM      4  H   UNL     1       5.019  -0.224  -0.257  0.00  0.00    +0.000 HD
ATOM      5  H   UNL     1       5.029  -1.485  -1.473  0.00  0.00    +0.000 HD
ENDROOT
BRANCH   1   6
ATOM      6  C   UNL     1       2.475   0.132   0.087  0.00  0.00    +0.000 C 
ATOM      7  O   UNL     1       3.104   0.882   0.808  0.00  0.00    +0.000 OA
BRANCH   6   8
ATOM      8  O   UNL     1       1.135   0.042   0.002  0.00  0.00    +0.000 OA
ATOM      9  H   UNL     1       0.905  -0.649  -0.663  0.00  0.00    +0.000 HD
ENDBRANCH   6   8
ENDBRANCH   1   6
TORSDOF 2
