MODEL 1
REMARK minimizedAffinity -9.41279316
REMARK minimizedRMSD -1
REMARK  Name = 
REMARK  5 active torsions:
REMARK  status: ('A' for Active; 'I' for Inactive)
REMARK    1  A    between atoms: N_6  and  C_7
REMARK    2  A    between atoms: C_7  and  C_8
REMARK    3  A    between atoms: N_10  and  C_11
REMARK    4  A    between atoms: C_15  and  C_17
REMARK    5  A    between atoms: C_22  and  C_24
REMARK                            x       y       z     vdW  Elec       q    Type
REMARK                         _______ _______ _______ _____ _____    ______ ____
ROOT
ATOM      1  C   UNL     1      29.022  -5.143  44.368  0.00  0.00    +0.000 C 
ATOM      2  O   UNL     1      29.955  -4.641  43.747  0.00  0.00    +0.000 OA
ATOM      3  N   UNL     1      28.958  -5.260  45.744  0.00  0.00    +0.000 N 
ATOM      4  H   UNL     1      28.352  -5.990  46.106  0.00  0.00    +0.000 HD
ENDROOT
BRANCH   3   5
ATOM      5  C   UNL     1      29.904  -4.692  46.617  0.00  0.00    +0.000 A 
ATOM      6  C   UNL     1      31.065  -5.404  46.949  0.00  0.00    +0.000 A 
ATOM      7  C   UNL     1      32.016  -4.832  47.793  0.00  0.00    +0.000 A 
ATOM      8  C   UNL     1      31.784  -3.573  48.358  0.00  0.00    +0.000 A 
ATOM      9  C   UNL     1      30.608  -2.865  48.079  0.00  0.00    +0.000 A 
ATOM     10  C   UNL     1      29.679  -3.431  47.188  0.00  0.00    +0.000 A 
ATOM     11 CL   UNL     1      31.393  -6.951  46.254  0.00  0.00    +0.000 Cl
BRANCH   9  12
ATOM     12  C   UNL     1      30.315  -1.534  48.725  0.00  0.00    +0.000 C 
ATOM     13  F   UNL     1      31.395  -0.992  49.358  0.00  0.00    +0.000 F 
ATOM     14  F   UNL     1      29.899  -0.593  47.832  0.00  0.00    +0.000 F 
ATOM     15  F   UNL     1      29.337  -1.621  49.671  0.00  0.00    +0.000 F 
ENDBRANCH   9  12
ENDBRANCH   3   5
BRANCH   1  16
ATOM     16  C   UNL     1      27.832  -5.764  43.641  0.00  0.00    +0.000 C 
BRANCH  16  22
ATOM     17  C   UNL     1      27.669  -5.419  41.246  0.00  0.00    +0.000 C 
ATOM     18  C   UNL     1      26.144  -5.515  41.054  0.00  0.00    +0.000 C 
ATOM     19  N   UNL     1      25.698  -6.905  40.901  0.00  0.00    +0.000 N 
ATOM     20  C   UNL     1      26.221  -7.829  41.909  0.00  0.00    +0.000 C 
ATOM     21  C   UNL     1      27.745  -7.673  42.081  0.00  0.00    +0.000 C 
ATOM     22  N   UNL     1      28.223  -6.282  42.310  0.00  0.00    +0.000 NA
ATOM     23  C   UNL     1      24.838  -7.392  39.911  0.00  0.00    +0.000 C 
ATOM     24  O   UNL     1      24.642  -8.604  39.793  0.00  0.00    +0.000 OA
BRANCH  23  25
ATOM     25  C   UNL     1      24.221  -6.455  38.984  0.00  0.00    +0.000 A 
ATOM     26  C   UNL     1      24.543  -5.141  38.696  0.00  0.00    +0.000 A 
ATOM     27  C   UNL     1      23.588  -4.679  37.760  0.00  0.00    +0.000 A 
ATOM     28  C   UNL     1      22.777  -5.753  37.481  0.00  0.00    +0.000 A 
ATOM     29  O   UNL     1      23.177  -6.841  38.183  0.00  0.00    +0.000 OA
ENDBRANCH  23  25
ENDBRANCH  16  22
ENDBRANCH   1  16
TORSDOF 5
ENDMDL
MODEL 2
REMARK minimizedAffinity -9.39535904
REMARK minimizedRMSD -1
REMARK  Name = 
REMARK  5 active torsions:
REMARK  status: ('A' for Active; 'I' for Inactive)
REMARK    1  A    between atoms: N_6  and  C_7
REMARK    2  A    between atoms: C_7  and  C_8
REMARK    3  A    between atoms: N_10  and  C_11
REMARK    4  A    between atoms: C_15  and  C_17
REMARK    5  A    between atoms: C_22  and  C_24
REMARK                            x       y       z     vdW  Elec       q    Type
REMARK                         _______ _______ _______ _____ _____    ______ ____
ROOT
ATOM      1  C   UNL     1      29.231  -5.553  44.565  0.00  0.00    +0.000 C 
ATOM      2  O   UNL     1      29.991  -4.903  43.854  0.00  0.00    +0.000 OA
ATOM      3  N   UNL     1      29.313  -5.638  45.942  0.00  0.00    +0.000 N 
ATOM      4  H   UNL     1      28.892  -6.458  46.370  0.00  0.00    +0.000 HD
ENDROOT
BRANCH   3   5
ATOM      5  C   UNL     1      30.206  -4.874  46.717  0.00  0.00    +0.000 A 
ATOM      6  C   UNL     1      30.002  -3.496  46.863  0.00  0.00    +0.000 A 
ATOM      7  C   UNL     1      30.870  -2.742  47.652  0.00  0.00    +0.000 A 
ATOM      8  C   UNL     1      31.980  -3.350  48.248  0.00  0.00    +0.000 A 
ATOM      9  C   UNL     1      32.231  -4.717  48.075  0.00  0.00    +0.000 A 
ATOM     10  C   UNL     1      31.322  -5.477  47.317  0.00  0.00    +0.000 A 
ATOM     11 CL   UNL     1      28.631  -2.716  46.158  0.00  0.00    +0.000 Cl
BRANCH   9  12
ATOM     12  C   UNL     1      33.454  -5.378  48.662  0.00  0.00    +0.000 C 
ATOM     13  F   UNL     1      33.955  -4.719  49.747  0.00  0.00    +0.000 F 
ATOM     14  F   UNL     1      33.219  -6.653  49.078  0.00  0.00    +0.000 F 
ATOM     15  F   UNL     1      34.482  -5.452  47.768  0.00  0.00    +0.000 F 
ENDBRANCH   9  12
ENDBRANCH   3   5
BRANCH   1  16
ATOM     16  C   UNL     1      28.122  -6.411  43.960  0.00  0.00    +0.000 C 
BRANCH  16  22
ATOM     17  C   UNL     1      27.907  -5.886  41.602  0.00  0.00    +0.000 C 
ATOM     18  C   UNL     1      26.374  -5.923  41.447  0.00  0.00    +0.000 C 
ATOM     19  N   UNL     1      25.882  -7.285  41.206  0.00  0.00    +0.000 N 
ATOM     20  C   UNL     1      26.404  -8.295  42.129  0.00  0.00    +0.000 C 
ATOM     21  C   UNL     1      27.937  -8.196  42.268  0.00  0.00    +0.000 C 
ATOM     22  N   UNL     1      28.462  -6.840  42.585  0.00  0.00    +0.000 NA
ATOM     23  C   UNL     1      24.983  -7.674  40.208  0.00  0.00    +0.000 C 
ATOM     24  O   UNL     1      24.746  -8.867  40.009  0.00  0.00    +0.000 OA
BRANCH  23  25
ATOM     25  C   UNL     1      24.370  -6.654  39.370  0.00  0.00    +0.000 A 
ATOM     26  C   UNL     1      24.763  -5.352  39.117  0.00  0.00    +0.000 A 
ATOM     27  C   UNL     1      23.779  -4.782  38.274  0.00  0.00    +0.000 A 
ATOM     28  C   UNL     1      22.878  -5.784  38.009  0.00  0.00    +0.000 A 
ATOM     29  O   UNL     1      23.248  -6.930  38.632  0.00  0.00    +0.000 OA
ENDBRANCH  23  25
ENDBRANCH  16  22
ENDBRANCH   1  16
TORSDOF 5
ENDMDL
MODEL 3
REMARK minimizedAffinity -9.27598095
REMARK minimizedRMSD -1
REMARK  Name = 
REMARK  5 active torsions:
REMARK  status: ('A' for Active; 'I' for Inactive)
REMARK    1  A    between atoms: N_6  and  C_7
REMARK    2  A    between atoms: C_7  and  C_8
REMARK    3  A    between atoms: N_10  and  C_11
REMARK    4  A    between atoms: C_15  and  C_17
REMARK    5  A    between atoms: C_22  and  C_24
REMARK                            x       y       z     vdW  Elec       q    Type
REMARK                         _______ _______ _______ _____ _____    ______ ____
ROOT
ATOM      1  C   UNL     1      29.344  -4.631  45.171  0.00  0.00    +0.000 C 
ATOM      2  O   UNL     1      29.732  -3.560  44.711  0.00  0.00    +0.000 OA
ATOM      3  N   UNL     1      29.833  -5.222  46.320  0.00  0.00    +0.000 N 
ATOM      4  H   UNL     1      29.714  -6.229  46.394  0.00  0.00    +0.000 HD
ENDROOT
BRANCH   3   5
ATOM      5  C   UNL     1      30.752  -4.600  47.185  0.00  0.00    +0.000 A 
ATOM      6  C   UNL     1      30.312  -3.623  48.088  0.00  0.00    +0.000 A 
ATOM      7  C   UNL     1      31.216  -3.025  48.964  0.00  0.00    +0.000 A 
ATOM      8  C   UNL     1      32.574  -3.355  48.901  0.00  0.00    +0.000 A 
ATOM      9  C   UNL     1      33.045  -4.293  47.973  0.00  0.00    +0.000 A 
ATOM     10  C   UNL     1      32.116  -4.926  47.128  0.00  0.00    +0.000 A 
ATOM     11 CL   UNL     1      28.640  -3.206  48.206  0.00  0.00    +0.000 Cl
BRANCH   9  12
ATOM     12  C   UNL     1      34.513  -4.618  47.852  0.00  0.00    +0.000 C 
ATOM     13  F   UNL     1      34.895  -4.928  46.580  0.00  0.00    +0.000 F 
ATOM     14  F   UNL     1      35.317  -3.589  48.240  0.00  0.00    +0.000 F 
ATOM     15  F   UNL     1      34.871  -5.690  48.617  0.00  0.00    +0.000 F 
ENDBRANCH   9  12
ENDBRANCH   3   5
BRANCH   1  16
ATOM     16  C   UNL     1      28.288  -5.465  44.449  0.00  0.00    +0.000 C 
BRANCH  16  22
ATOM     17  C   UNL     1      28.116  -5.147  42.051  0.00  0.00    +0.000 C 
ATOM     18  C   UNL     1      26.624  -5.465  41.834  0.00  0.00    +0.000 C 
ATOM     19  N   UNL     1      26.389  -6.905  41.678  0.00  0.00    +0.000 N 
ATOM     20  C   UNL     1      27.025  -7.742  42.696  0.00  0.00    +0.000 C 
ATOM     21  C   UNL     1      28.507  -7.365  42.893  0.00  0.00    +0.000 C 
ATOM     22  N   UNL     1      28.772  -5.920  43.126  0.00  0.00    +0.000 NA
ATOM     23  C   UNL     1      25.626  -7.513  40.675  0.00  0.00    +0.000 C 
ATOM     24  O   UNL     1      25.610  -8.740  40.557  0.00  0.00    +0.000 OA
BRANCH  23  25
ATOM     25  C   UNL     1      24.894  -6.676  39.736  0.00  0.00    +0.000 A 
ATOM     26  C   UNL     1      25.143  -5.383  39.310  0.00  0.00    +0.000 A 
ATOM     27  C   UNL     1      24.089  -5.029  38.434  0.00  0.00    +0.000 A 
ATOM     28  C   UNL     1      23.294  -6.143  38.325  0.00  0.00    +0.000 A 
ATOM     29  O   UNL     1      23.794  -7.157  39.074  0.00  0.00    +0.000 OA
ENDBRANCH  23  25
ENDBRANCH  16  22
ENDBRANCH   1  16
TORSDOF 5
ENDMDL
MODEL 4
REMARK minimizedAffinity -9.26269054
REMARK minimizedRMSD -1
REMARK  Name = 
REMARK  5 active torsions:
REMARK  status: ('A' for Active; 'I' for Inactive)
REMARK    1  A    between atoms: N_6  and  C_7
REMARK    2  A    between atoms: C_7  and  C_8
REMARK    3  A    between atoms: N_10  and  C_11
REMARK    4  A    between atoms: C_15  and  C_17
REMARK    5  A    between atoms: C_22  and  C_24
REMARK                            x       y       z     vdW  Elec       q    Type
REMARK                         _______ _______ _______ _____ _____    ______ ____
ROOT
ATOM      1  C   UNL     1      29.543  -2.267  47.860  0.00  0.00    +0.000 C 
ATOM      2  O   UNL     1      28.491  -2.777  48.233  0.00  0.00    +0.000 OA
ATOM      3  N   UNL     1      30.255  -2.649  46.738  0.00  0.00    +0.000 N 
ATOM      4  H   UNL     1      31.247  -2.428  46.736  0.00  0.00    +0.000 HD
ENDROOT
BRANCH   3   5
ATOM      5  C   UNL     1      29.786  -3.591  45.804  0.00  0.00    +0.000 A 
ATOM      6  C   UNL     1      30.040  -4.955  45.998  0.00  0.00    +0.000 A 
ATOM      7  C   UNL     1      29.554  -5.892  45.088  0.00  0.00    +0.000 A 
ATOM      8  C   UNL     1      28.865  -5.467  43.947  0.00  0.00    +0.000 A 
ATOM      9  C   UNL     1      28.642  -4.105  43.707  0.00  0.00    +0.000 A 
ATOM     10  C   UNL     1      29.095  -3.172  44.657  0.00  0.00    +0.000 A 
ATOM     11 CL   UNL     1      30.870  -5.517  47.406  0.00  0.00    +0.000 Cl
BRANCH   9  12
ATOM     12  C   UNL     1      27.952  -3.625  42.454  0.00  0.00    +0.000 C 
ATOM     13  F   UNL     1      27.959  -4.546  41.447  0.00  0.00    +0.000 F 
ATOM     14  F   UNL     1      26.643  -3.310  42.658  0.00  0.00    +0.000 F 
ATOM     15  F   UNL     1      28.537  -2.507  41.936  0.00  0.00    +0.000 F 
ENDBRANCH   9  12
ENDBRANCH   3   5
BRANCH   1  16
ATOM     16  C   UNL     1      30.218  -1.163  48.671  0.00  0.00    +0.000 C 
BRANCH  16  22
ATOM     17  C   UNL     1      29.277  -1.096  50.905  0.00  0.00    +0.000 C 
ATOM     18  C   UNL     1      29.232   0.425  51.143  0.00  0.00    +0.000 C 
ATOM     19  N   UNL     1      30.512   0.937  51.649  0.00  0.00    +0.000 N 
ATOM     20  C   UNL     1      31.687   0.495  50.895  0.00  0.00    +0.000 C 
ATOM     21  C   UNL     1      31.668  -1.029  50.662  0.00  0.00    +0.000 C 
ATOM     22  N   UNL     1      30.409  -1.570  50.082  0.00  0.00    +0.000 NA
ATOM     23  C   UNL     1      30.686   1.788  52.745  0.00  0.00    +0.000 C 
ATOM     24  O   UNL     1      31.816   2.043  53.167  0.00  0.00    +0.000 OA
BRANCH  23  25
ATOM     25  C   UNL     1      29.513   2.326  53.418  0.00  0.00    +0.000 A 
ATOM     26  C   UNL     1      28.937   3.581  53.343  0.00  0.00    +0.000 A 
ATOM     27  C   UNL     1      27.845   3.588  54.244  0.00  0.00    +0.000 A 
ATOM     28  C   UNL     1      27.778   2.321  54.769  0.00  0.00    +0.000 A 
ATOM     29  O   UNL     1      28.754   1.539  54.246  0.00  0.00    +0.000 OA
ENDBRANCH  23  25
ENDBRANCH  16  22
ENDBRANCH   1  16
TORSDOF 5
ENDMDL
MODEL 5
REMARK minimizedAffinity -9.10725784
REMARK minimizedRMSD -1
REMARK  Name = 
REMARK  5 active torsions:
REMARK  status: ('A' for Active; 'I' for Inactive)
REMARK    1  A    between atoms: N_6  and  C_7
REMARK    2  A    between atoms: C_7  and  C_8
REMARK    3  A    between atoms: N_10  and  C_11
REMARK    4  A    between atoms: C_15  and  C_17
REMARK    5  A    between atoms: C_22  and  C_24
REMARK                            x       y       z     vdW  Elec       q    Type
REMARK                         _______ _______ _______ _____ _____    ______ ____
ROOT
ATOM      1  C   UNL     1      28.780  -5.419  43.877  0.00  0.00    +0.000 C 
ATOM      2  O   UNL     1      27.854  -4.618  43.969  0.00  0.00    +0.000 OA
ATOM      3  N   UNL     1      28.751  -6.582  43.132  0.00  0.00    +0.000 N 
ATOM      4  H   UNL     1      29.395  -7.316  43.415  0.00  0.00    +0.000 HD
ENDROOT
BRANCH   3   5
ATOM      5  C   UNL     1      27.693  -6.929  42.273  0.00  0.00    +0.000 A 
ATOM      6  C   UNL     1      27.320  -8.272  42.129  0.00  0.00    +0.000 A 
ATOM      7  C   UNL     1      26.254  -8.615  41.299  0.00  0.00    +0.000 A 
ATOM      8  C   UNL     1      25.594  -7.626  40.561  0.00  0.00    +0.000 A 
ATOM      9  C   UNL     1      25.982  -6.283  40.652  0.00  0.00    +0.000 A 
ATOM     10  C   UNL     1      27.026  -5.943  41.530  0.00  0.00    +0.000 A 
ATOM     11 CL   UNL     1      28.098  -9.517  43.039  0.00  0.00    +0.000 Cl
BRANCH   9  12
ATOM     12  C   UNL     1      25.320  -5.211  39.821  0.00  0.00    +0.000 C 
ATOM     13  F   UNL     1      25.890  -5.053  38.591  0.00  0.00    +0.000 F 
ATOM     14  F   UNL     1      24.001  -5.460  39.589  0.00  0.00    +0.000 F 
ATOM     15  F   UNL     1      25.378  -3.985  40.415  0.00  0.00    +0.000 F 
ENDBRANCH   9  12
ENDBRANCH   3   5
BRANCH   1  16
ATOM     16  C   UNL     1      30.076  -5.221  44.661  0.00  0.00    +0.000 C 
BRANCH  16  22
ATOM     17  C   UNL     1      29.221  -4.714  46.873  0.00  0.00    +0.000 C 
ATOM     18  C   UNL     1      30.009  -3.428  47.188  0.00  0.00    +0.000 C 
ATOM     19  N   UNL     1      31.334  -3.722  47.749  0.00  0.00    +0.000 N 
ATOM     20  C   UNL     1      32.107  -4.716  47.001  0.00  0.00    +0.000 C 
ATOM     21  C   UNL     1      31.264  -5.969  46.689  0.00  0.00    +0.000 C 
ATOM     22  N   UNL     1      29.944  -5.708  46.053  0.00  0.00    +0.000 NA
ATOM     23  C   UNL     1      31.894  -3.142  48.891  0.00  0.00    +0.000 C 
ATOM     24  O   UNL     1      32.957  -3.565  49.352  0.00  0.00    +0.000 OA
BRANCH  23  25
ATOM     25  C   UNL     1      31.180  -2.067  49.564  0.00  0.00    +0.000 A 
ATOM     26  C   UNL     1      31.616  -0.816  49.962  0.00  0.00    +0.000 A 
ATOM     27  C   UNL     1      30.530  -0.191  50.619  0.00  0.00    +0.000 A 
ATOM     28  C   UNL     1      29.475  -1.067  50.529  0.00  0.00    +0.000 A 
ATOM     29  O   UNL     1      29.845  -2.185  49.857  0.00  0.00    +0.000 OA
ENDBRANCH  23  25
ENDBRANCH  16  22
ENDBRANCH   1  16
TORSDOF 5
ENDMDL
