MODEL 1
REMARK minimizedAffinity -8.88660049
REMARK minimizedRMSD -1
REMARK  Name = 
REMARK  4 active torsions:
REMARK  status: ('A' for Active; 'I' for Inactive)
REMARK    1  A    between atoms: C_1  and  O_2
REMARK    2  A    between atoms: O_2  and  C_3
REMARK    3  A    between atoms: C_6  and  N_9
REMARK    4  A    between atoms: C_15  and  C_17
REMARK                            x       y       z     vdW  Elec       q    Type
REMARK                         _______ _______ _______ _____ _____    ______ ____
ROOT
ATOM      1  N   UNL     1      25.033  -5.886  40.335  0.00  0.00    +0.000 N 
ATOM      2  C   UNL     1      25.959  -4.918  40.923  0.00  0.00    +0.000 C 
ATOM      3  C   UNL     1      27.319  -5.573  41.207  0.00  0.00    +0.000 C 
ATOM      4  N   UNL     1      27.187  -6.819  41.982  0.00  0.00    +0.000 N 
ATOM      5  C   UNL     1      26.254  -7.780  41.368  0.00  0.00    +0.000 C 
ATOM      6  C   UNL     1      24.873  -7.144  41.091  0.00  0.00    +0.000 C 
ATOM      7  C   UNL     1      27.657  -7.077  43.279  0.00  0.00    +0.000 C 
ATOM      8  O   UNL     1      27.317  -8.113  43.856  0.00  0.00    +0.000 OA
ENDROOT
BRANCH   7   9
ATOM      9  C   UNL     1      28.516  -6.095  43.935  0.00  0.00    +0.000 A 
ATOM     10  C   UNL     1      28.619  -4.721  43.790  0.00  0.00    +0.000 A 
ATOM     11  C   UNL     1      29.332  -4.131  44.870  0.00  0.00    +0.000 A 
ATOM     12  C   UNL     1      30.055  -5.073  45.578  0.00  0.00    +0.000 A 
ATOM     13  S   UNL     1      29.667  -6.656  45.091  0.00  0.00    +0.000 S 
ATOM     14  C   UNL     1      30.946  -4.763  46.698  0.00  0.00    +0.000 A 
ATOM     15  C   UNL     1      32.138  -5.463  46.917  0.00  0.00    +0.000 A 
ATOM     16  C   UNL     1      33.010  -5.069  47.938  0.00  0.00    +0.000 A 
ATOM     17  C   UNL     1      32.690  -3.992  48.768  0.00  0.00    +0.000 A 
ATOM     18  C   UNL     1      31.513  -3.279  48.564  0.00  0.00    +0.000 A 
ATOM     19  C   UNL     1      30.664  -3.657  47.522  0.00  0.00    +0.000 A 
ATOM     20  S   UNL     1      29.297  -2.603  47.089  0.00  0.00    +0.000 S 
ATOM     21  O   UNL     1      29.648  -1.244  47.468  0.00  0.00    +0.000 OA
ATOM     22  O   UNL     1      28.088  -3.226  47.596  0.00  0.00    +0.000 OA
ATOM     23  C   UNL     1      29.321  -2.694  45.280  0.00  0.00    +0.000 C 
ENDBRANCH   7   9
BRANCH   1  27
ATOM     24  C   UNL     1      23.478  -5.521  36.429  0.00  0.00    +0.000 A 
ATOM     25  C   UNL     1      24.269  -4.508  36.961  0.00  0.00    +0.000 A 
ATOM     26  C   UNL     1      24.787  -4.627  38.259  0.00  0.00    +0.000 A 
ATOM     27  C   UNL     1      24.539  -5.755  39.053  0.00  0.00    +0.000 A 
ATOM     28  C   UNL     1      23.726  -6.752  38.499  0.00  0.00    +0.000 A 
ATOM     29  C   UNL     1      23.193  -6.636  37.211  0.00  0.00    +0.000 A 
BRANCH  24  31
ATOM     30  C   UNL     1      23.376  -6.499  34.284  0.00  0.00    +0.000 C 
ATOM     31  O   UNL     1      22.900  -5.512  35.191  0.00  0.00    +0.000 OA
ENDBRANCH  24  31
ENDBRANCH   1  27
TORSDOF 3
ENDMDL
MODEL 2
REMARK minimizedAffinity -8.68063068
REMARK minimizedRMSD -1
REMARK  Name = 
REMARK  4 active torsions:
REMARK  status: ('A' for Active; 'I' for Inactive)
REMARK    1  A    between atoms: C_1  and  O_2
REMARK    2  A    between atoms: O_2  and  C_3
REMARK    3  A    between atoms: C_6  and  N_9
REMARK    4  A    between atoms: C_15  and  C_17
REMARK                            x       y       z     vdW  Elec       q    Type
REMARK                         _______ _______ _______ _____ _____    ______ ____
ROOT
ATOM      1  N   UNL     1      29.793  -3.618  47.884  0.00  0.00    +0.000 N 
ATOM      2  C   UNL     1      29.131  -2.417  48.394  0.00  0.00    +0.000 C 
ATOM      3  C   UNL     1      30.124  -1.250  48.487  0.00  0.00    +0.000 C 
ATOM      4  N   UNL     1      31.348  -1.615  49.223  0.00  0.00    +0.000 N 
ATOM      5  C   UNL     1      31.998  -2.824  48.689  0.00  0.00    +0.000 C 
ATOM      6  C   UNL     1      31.018  -4.016  48.604  0.00  0.00    +0.000 C 
ATOM      7  C   UNL     1      31.803  -1.092  50.443  0.00  0.00    +0.000 C 
ATOM      8  O   UNL     1      32.758  -1.624  51.016  0.00  0.00    +0.000 OA
ENDROOT
BRANCH   7   9
ATOM      9  C   UNL     1      31.116   0.054  51.030  0.00  0.00    +0.000 A 
ATOM     10  C   UNL     1      29.860   0.180  51.600  0.00  0.00    +0.000 A 
ATOM     11  C   UNL     1      29.742   1.383  52.350  0.00  0.00    +0.000 A 
ATOM     12  C   UNL     1      30.738   2.286  52.025  0.00  0.00    +0.000 A 
ATOM     13  S   UNL     1      31.919   1.581  51.025  0.00  0.00    +0.000 S 
ATOM     14  C   UNL     1      30.840   3.640  52.574  0.00  0.00    +0.000 A 
ATOM     15  C   UNL     1      31.293   4.721  51.810  0.00  0.00    +0.000 A 
ATOM     16  C   UNL     1      31.280   6.015  52.340  0.00  0.00    +0.000 A 
ATOM     17  C   UNL     1      30.841   6.241  53.647  0.00  0.00    +0.000 A 
ATOM     18  C   UNL     1      30.379   5.182  54.422  0.00  0.00    +0.000 A 
ATOM     19  C   UNL     1      30.364   3.898  53.874  0.00  0.00    +0.000 A 
ATOM     20  S   UNL     1      29.542   2.587  54.752  0.00  0.00    +0.000 S 
ATOM     21  O   UNL     1      28.504   3.188  55.575  0.00  0.00    +0.000 OA
ATOM     22  O   UNL     1      30.568   1.749  55.347  0.00  0.00    +0.000 OA
ATOM     23  C   UNL     1      28.728   1.694  53.403  0.00  0.00    +0.000 C 
ENDBRANCH   7   9
BRANCH   1  27
ATOM     24  C   UNL     1      28.733  -5.428  44.222  0.00  0.00    +0.000 A 
ATOM     25  C   UNL     1      28.894  -4.048  44.296  0.00  0.00    +0.000 A 
ATOM     26  C   UNL     1      29.247  -3.444  45.512  0.00  0.00    +0.000 A 
ATOM     27  C   UNL     1      29.454  -4.195  46.677  0.00  0.00    +0.000 A 
ATOM     28  C   UNL     1      29.269  -5.580  46.578  0.00  0.00    +0.000 A 
ATOM     29  C   UNL     1      28.904  -6.189  45.373  0.00  0.00    +0.000 A 
BRANCH  24  31
ATOM     30  C   UNL     1      27.748  -7.384  43.343  0.00  0.00    +0.000 C 
ATOM     31  O   UNL     1      28.372  -6.128  43.106  0.00  0.00    +0.000 OA
ENDBRANCH  24  31
ENDBRANCH   1  27
TORSDOF 3
ENDMDL
MODEL 3
REMARK minimizedAffinity -8.59389019
REMARK minimizedRMSD -1
REMARK  Name = 
REMARK  4 active torsions:
REMARK  status: ('A' for Active; 'I' for Inactive)
REMARK    1  A    between atoms: C_1  and  O_2
REMARK    2  A    between atoms: O_2  and  C_3
REMARK    3  A    between atoms: C_6  and  N_9
REMARK    4  A    between atoms: C_15  and  C_17
REMARK                            x       y       z     vdW  Elec       q    Type
REMARK                         _______ _______ _______ _____ _____    ______ ____
ROOT
ATOM      1  N   UNL     1      29.626  -4.634  46.220  0.00  0.00    +0.000 N 
ATOM      2  C   UNL     1      29.484  -3.516  47.153  0.00  0.00    +0.000 C 
ATOM      3  C   UNL     1      30.805  -2.743  47.276  0.00  0.00    +0.000 C 
ATOM      4  N   UNL     1      31.944  -3.629  47.576  0.00  0.00    +0.000 N 
ATOM      5  C   UNL     1      32.069  -4.743  46.621  0.00  0.00    +0.000 C 
ATOM      6  C   UNL     1      30.754  -5.545  46.496  0.00  0.00    +0.000 C 
ATOM      7  C   UNL     1      32.736  -3.646  48.734  0.00  0.00    +0.000 C 
ATOM      8  O   UNL     1      33.544  -4.563  48.906  0.00  0.00    +0.000 OA
ENDROOT
BRANCH   7   9
ATOM      9  C   UNL     1      32.565  -2.594  49.732  0.00  0.00    +0.000 A 
ATOM     10  C   UNL     1      33.460  -2.003  50.608  0.00  0.00    +0.000 A 
ATOM     11  C   UNL     1      32.946  -0.791  51.146  0.00  0.00    +0.000 A 
ATOM     12  C   UNL     1      31.578  -0.696  50.971  0.00  0.00    +0.000 A 
ATOM     13  S   UNL     1      30.989  -1.929  49.959  0.00  0.00    +0.000 S 
ATOM     14  C   UNL     1      30.751   0.400  51.482  0.00  0.00    +0.000 A 
ATOM     15  C   UNL     1      29.451   0.193  51.958  0.00  0.00    +0.000 A 
ATOM     16  C   UNL     1      28.734   1.248  52.531  0.00  0.00    +0.000 A 
ATOM     17  C   UNL     1      29.293   2.525  52.610  0.00  0.00    +0.000 A 
ATOM     18  C   UNL     1      30.586   2.752  52.149  0.00  0.00    +0.000 A 
ATOM     19  C   UNL     1      31.309   1.686  51.609  0.00  0.00    +0.000 A 
ATOM     20  S   UNL     1      33.040   1.900  51.258  0.00  0.00    +0.000 S 
ATOM     21  O   UNL     1      33.551   2.925  52.155  0.00  0.00    +0.000 OA
ATOM     22  O   UNL     1      33.180   2.035  49.819  0.00  0.00    +0.000 OA
ATOM     23  C   UNL     1      33.722   0.310  51.794  0.00  0.00    +0.000 C 
ENDBRANCH   7   9
BRANCH   1  27
ATOM     24  C   UNL     1      27.464  -4.889  42.605  0.00  0.00    +0.000 A 
ATOM     25  C   UNL     1      27.907  -3.654  43.065  0.00  0.00    +0.000 A 
ATOM     26  C   UNL     1      28.627  -3.566  44.267  0.00  0.00    +0.000 A 
ATOM     27  C   UNL     1      28.927  -4.701  45.032  0.00  0.00    +0.000 A 
ATOM     28  C   UNL     1      28.455  -5.930  44.553  0.00  0.00    +0.000 A 
ATOM     29  C   UNL     1      27.725  -6.025  43.364  0.00  0.00    +0.000 A 
BRANCH  24  31
ATOM     30  C   UNL     1      26.510  -6.463  41.127  0.00  0.00    +0.000 C 
ATOM     31  O   UNL     1      26.739  -5.101  41.466  0.00  0.00    +0.000 OA
ENDBRANCH  24  31
ENDBRANCH   1  27
TORSDOF 3
ENDMDL
MODEL 4
REMARK minimizedAffinity -8.2975111
REMARK minimizedRMSD -1
REMARK  Name = 
REMARK  4 active torsions:
REMARK  status: ('A' for Active; 'I' for Inactive)
REMARK    1  A    between atoms: C_1  and  O_2
REMARK    2  A    between atoms: O_2  and  C_3
REMARK    3  A    between atoms: C_6  and  N_9
REMARK    4  A    between atoms: C_15  and  C_17
REMARK                            x       y       z     vdW  Elec       q    Type
REMARK                         _______ _______ _______ _____ _____    ______ ____
ROOT
ATOM      1  N   UNL     1      29.100  -5.343  43.752  0.00  0.00    +0.000 N 
ATOM      2  C   UNL     1      30.057  -5.780  44.768  0.00  0.00    +0.000 C 
ATOM      3  C   UNL     1      29.691  -5.201  46.142  0.00  0.00    +0.000 C 
ATOM      4  N   UNL     1      29.493  -3.741  46.097  0.00  0.00    +0.000 N 
ATOM      5  C   UNL     1      28.522  -3.326  45.071  0.00  0.00    +0.000 C 
ATOM      6  C   UNL     1      28.884  -3.885  43.676  0.00  0.00    +0.000 C 
ATOM      7  C   UNL     1      30.254  -2.752  46.739  0.00  0.00    +0.000 C 
ATOM      8  O   UNL     1      30.066  -1.564  46.464  0.00  0.00    +0.000 OA
ENDROOT
BRANCH   7   9
ATOM      9  C   UNL     1      31.280  -3.151  47.698  0.00  0.00    +0.000 A 
ATOM     10  C   UNL     1      31.930  -4.358  47.900  0.00  0.00    +0.000 A 
ATOM     11  C   UNL     1      33.094  -4.199  48.703  0.00  0.00    +0.000 A 
ATOM     12  C   UNL     1      33.086  -2.994  49.380  0.00  0.00    +0.000 A 
ATOM     13  S   UNL     1      31.821  -1.987  48.851  0.00  0.00    +0.000 S 
ATOM     14  C   UNL     1      34.110  -2.576  50.340  0.00  0.00    +0.000 A 
ATOM     15  C   UNL     1      33.799  -1.830  51.483  0.00  0.00    +0.000 A 
ATOM     16  C   UNL     1      34.791  -1.538  52.425  0.00  0.00    +0.000 A 
ATOM     17  C   UNL     1      36.107  -1.962  52.225  0.00  0.00    +0.000 A 
ATOM     18  C   UNL     1      36.436  -2.710  51.099  0.00  0.00    +0.000 A 
ATOM     19  C   UNL     1      35.434  -3.026  50.179  0.00  0.00    +0.000 A 
ATOM     20  S   UNL     1      35.783  -4.191  48.881  0.00  0.00    +0.000 S 
ATOM     21  O   UNL     1      36.835  -5.077  49.351  0.00  0.00    +0.000 OA
ATOM     22  O   UNL     1      35.942  -3.437  47.650  0.00  0.00    +0.000 OA
ATOM     23  C   UNL     1      34.245  -5.145  48.820  0.00  0.00    +0.000 C 
ENDBRANCH   7   9
BRANCH   1  27
ATOM     24  C   UNL     1      26.583  -8.012  41.666  0.00  0.00    +0.000 A 
ATOM     25  C   UNL     1      27.095  -8.367  42.909  0.00  0.00    +0.000 A 
ATOM     26  C   UNL     1      27.932  -7.481  43.605  0.00  0.00    +0.000 A 
ATOM     27  C   UNL     1      28.272  -6.224  43.086  0.00  0.00    +0.000 A 
ATOM     28  C   UNL     1      27.754  -5.900  41.826  0.00  0.00    +0.000 A 
ATOM     29  C   UNL     1      26.931  -6.782  41.119  0.00  0.00    +0.000 A 
BRANCH  24  31
ATOM     30  C   UNL     1      24.629  -8.148  40.348  0.00  0.00    +0.000 C 
ATOM     31  O   UNL     1      25.778  -8.793  40.885  0.00  0.00    +0.000 OA
ENDBRANCH  24  31
ENDBRANCH   1  27
TORSDOF 3
ENDMDL
MODEL 5
REMARK minimizedAffinity -8.26370525
REMARK minimizedRMSD -1
REMARK  Name = 
REMARK  4 active torsions:
REMARK  status: ('A' for Active; 'I' for Inactive)
REMARK    1  A    between atoms: C_1  and  O_2
REMARK    2  A    between atoms: O_2  and  C_3
REMARK    3  A    between atoms: C_6  and  N_9
REMARK    4  A    between atoms: C_15  and  C_17
REMARK                            x       y       z     vdW  Elec       q    Type
REMARK                         _______ _______ _______ _____ _____    ______ ____
ROOT
ATOM      1  N   UNL     1      30.599  -3.354  46.632  0.00  0.00    +0.000 N 
ATOM      2  C   UNL     1      31.505  -3.795  47.693  0.00  0.00    +0.000 C 
ATOM      3  C   UNL     1      31.047  -3.255  49.056  0.00  0.00    +0.000 C 
ATOM      4  N   UNL     1      30.820  -1.799  49.032  0.00  0.00    +0.000 N 
ATOM      5  C   UNL     1      29.901  -1.380  47.960  0.00  0.00    +0.000 C 
ATOM      6  C   UNL     1      30.356  -1.899  46.577  0.00  0.00    +0.000 C 
ATOM      7  C   UNL     1      31.520  -0.810  49.739  0.00  0.00    +0.000 C 
ATOM      8  O   UNL     1      31.322   0.380  49.481  0.00  0.00    +0.000 OA
ENDROOT
BRANCH   7   9
ATOM      9  C   UNL     1      32.497  -1.210  50.748  0.00  0.00    +0.000 A 
ATOM     10  C   UNL     1      33.681  -1.922  50.649  0.00  0.00    +0.000 A 
ATOM     11  C   UNL     1      34.480  -1.777  51.817  0.00  0.00    +0.000 A 
ATOM     12  C   UNL     1      33.743  -1.294  52.883  0.00  0.00    +0.000 A 
ATOM     13  S   UNL     1      32.191  -0.797  52.395  0.00  0.00    +0.000 S 
ATOM     14  C   UNL     1      34.267  -1.109  54.237  0.00  0.00    +0.000 A 
ATOM     15  C   UNL     1      33.488  -1.341  55.376  0.00  0.00    +0.000 A 
ATOM     16  C   UNL     1      34.056  -1.250  56.650  0.00  0.00    +0.000 A 
ATOM     17  C   UNL     1      35.399  -0.899  56.804  0.00  0.00    +0.000 A 
ATOM     18  C   UNL     1      36.194  -0.670  55.685  0.00  0.00    +0.000 A 
ATOM     19  C   UNL     1      35.628  -0.795  54.415  0.00  0.00    +0.000 A 
ATOM     20  S   UNL     1      36.686  -0.762  52.985  0.00  0.00    +0.000 S 
ATOM     21  O   UNL     1      38.001  -1.227  53.395  0.00  0.00    +0.000 OA
ATOM     22  O   UNL     1      36.522   0.535  52.352  0.00  0.00    +0.000 OA
ATOM     23  C   UNL     1      35.944  -2.048  51.949  0.00  0.00    +0.000 C 
ENDBRANCH   7   9
BRANCH   1  27
ATOM     24  C   UNL     1      28.257  -6.016  44.345  0.00  0.00    +0.000 A 
ATOM     25  C   UNL     1      28.946  -6.478  45.462  0.00  0.00    +0.000 A 
ATOM     26  C   UNL     1      29.726  -5.595  46.224  0.00  0.00    +0.000 A 
ATOM     27  C   UNL     1      29.832  -4.236  45.900  0.00  0.00    +0.000 A 
ATOM     28  C   UNL     1      29.139  -3.801  44.762  0.00  0.00    +0.000 A 
ATOM     29  C   UNL     1      28.372  -4.677  43.988  0.00  0.00    +0.000 A 
BRANCH  24  31
ATOM     30  C   UNL     1      27.474  -8.174  43.794  0.00  0.00    +0.000 C 
ATOM     31  O   UNL     1      27.486  -6.779  43.515  0.00  0.00    +0.000 OA
ENDBRANCH  24  31
ENDBRANCH   1  27
TORSDOF 3
ENDMDL
