REMARK  Name = 
REMARK  4 active torsions:
REMARK  status: ('A' for Active; 'I' for Inactive)
REMARK    1  A    between atoms: C_1  and  O_2
REMARK    2  A    between atoms: O_2  and  C_3
REMARK    3  A    between atoms: C_6  and  N_9
REMARK    4  A    between atoms: C_15  and  C_17
REMARK                            x       y       z     vdW  Elec       q    Type
REMARK                         _______ _______ _______ _____ _____    ______ ____
ROOT
ATOM      1  N   UNL     1       5.287  -3.591  -3.030  0.00  0.00    +0.000 N 
ATOM      2  C   UNL     1       5.905  -3.252  -4.312  0.00  0.00    +0.000 C 
ATOM      3  C   UNL     1       5.311  -4.105  -5.442  0.00  0.00    +0.000 C 
ATOM      4  N   UNL     1       5.339  -5.545  -5.128  0.00  0.00    +0.000 N 
ATOM      5  C   UNL     1       4.707  -5.862  -3.836  0.00  0.00    +0.000 C 
ATOM      6  C   UNL     1       5.305  -5.025  -2.682  0.00  0.00    +0.000 C 
ATOM      7  C   UNL     1       6.060  -6.553  -5.787  0.00  0.00    +0.000 C 
ATOM      8  O   UNL     1       6.113  -7.684  -5.297  0.00  0.00    +0.000 OA
ENDROOT
BRANCH   7   9
ATOM      9  C   UNL     1       6.763  -6.234  -7.026  0.00  0.00    +0.000 A 
ATOM     10  C   UNL     1       6.457  -5.363  -8.059  0.00  0.00    +0.000 A 
ATOM     11  C   UNL     1       7.586  -5.114  -8.888  0.00  0.00    +0.000 A 
ATOM     12  C   UNL     1       8.575  -6.062  -8.700  0.00  0.00    +0.000 A 
ATOM     13  S   UNL     1       8.233  -7.068  -7.372  0.00  0.00    +0.000 S 
ATOM     14  C   UNL     1       9.825  -6.117  -9.461  0.00  0.00    +0.000 A 
ATOM     15  C   UNL     1      10.426  -7.329  -9.819  0.00  0.00    +0.000 A 
ATOM     16  C   UNL     1      11.564  -7.339 -10.632  0.00  0.00    +0.000 A 
ATOM     17  C   UNL     1      12.131  -6.141 -11.073  0.00  0.00    +0.000 A 
ATOM     18  C   UNL     1      11.546  -4.925 -10.734  0.00  0.00    +0.000 A 
ATOM     19  C   UNL     1      10.391  -4.924  -9.950  0.00  0.00    +0.000 A 
ATOM     20  S   UNL     1       9.492  -3.405  -9.728  0.00  0.00    +0.000 S 
ATOM     21  O   UNL     1       9.752  -2.563 -10.885  0.00  0.00    +0.000 OA
ATOM     22  O   UNL     1       9.768  -2.927  -8.385  0.00  0.00    +0.000 OA
ATOM     23  C   UNL     1       7.776  -3.974  -9.835  0.00  0.00    +0.000 C 
ENDBRANCH   7   9
BRANCH   1  27
ATOM     24  C   UNL     1       2.986  -0.847  -0.797  0.00  0.00    +0.000 A 
ATOM     25  C   UNL     1       3.001  -0.775  -2.186  0.00  0.00    +0.000 A 
ATOM     26  C   UNL     1       3.765  -1.686  -2.931  0.00  0.00    +0.000 A 
ATOM     27  C   UNL     1       4.523  -2.691  -2.315  0.00  0.00    +0.000 A 
ATOM     28  C   UNL     1       4.502  -2.731  -0.915  0.00  0.00    +0.000 A 
ATOM     29  C   UNL     1       3.755  -1.818  -0.164  0.00  0.00    +0.000 A 
BRANCH  24  31
ATOM     30  C   UNL     1       1.135   0.590  -0.516  0.00  0.00    +0.000 C 
ATOM     31  O   UNL     1       2.302  -0.008   0.036  0.00  0.00    +0.000 OA
ENDBRANCH  24  31
ENDBRANCH   1  27
TORSDOF 3
