REMARK  Name = 
REMARK  5 active torsions:
REMARK  status: ('A' for Active; 'I' for Inactive)
REMARK    1  A    between atoms: N_6  and  C_7
REMARK    2  A    between atoms: C_7  and  C_8
REMARK    3  A    between atoms: N_10  and  C_11
REMARK    4  A    between atoms: C_15  and  C_17
REMARK    5  A    between atoms: C_22  and  C_24
REMARK                            x       y       z     vdW  Elec       q    Type
REMARK                         _______ _______ _______ _____ _____    ______ ____
ROOT
ATOM      1  C   UNL     1       2.418   1.191  -2.215  0.00  0.00    +0.000 C 
ATOM      2  O   UNL     1       2.097   1.806  -3.228  0.00  0.00    +0.000 OA
ATOM      3  N   UNL     1       3.537   1.457  -1.448  0.00  0.00    +0.000 N 
ATOM      4  H   UNL     1       3.889   0.689  -0.883  0.00  0.00    +0.000 HD
ENDROOT
BRANCH   3   5
ATOM      5  C   UNL     1       4.382   2.561  -1.662  0.00  0.00    +0.000 A 
ATOM      6  C   UNL     1       5.769   2.418  -1.521  0.00  0.00    +0.000 A 
ATOM      7  C   UNL     1       6.610   3.504  -1.759  0.00  0.00    +0.000 A 
ATOM      8  C   UNL     1       6.067   4.753  -2.079  0.00  0.00    +0.000 A 
ATOM      9  C   UNL     1       4.681   4.931  -2.177  0.00  0.00    +0.000 A 
ATOM     10  C   UNL     1       3.845   3.817  -1.983  0.00  0.00    +0.000 A 
ATOM     11 CL   UNL     1       6.475   0.886  -1.147  0.00  0.00    +0.000 Cl
BRANCH   9  12
ATOM     12  C   UNL     1       4.076   6.283  -2.464  0.00  0.00    +0.000 C 
ATOM     13  F   UNL     1       5.007   7.264  -2.644  0.00  0.00    +0.000 F 
ATOM     14  F   UNL     1       3.307   6.291  -3.588  0.00  0.00    +0.000 F 
ATOM     15  F   UNL     1       3.273   6.717  -1.450  0.00  0.00    +0.000 F 
ENDBRANCH   9  12
ENDBRANCH   3   5
BRANCH   1  16
ATOM     16  C   UNL     1       1.610  -0.010  -1.730  0.00  0.00    +0.000 C 
BRANCH  16  22
ATOM     17  C   UNL     1       0.710  -1.192   0.187  0.00  0.00    +0.000 C 
ATOM     18  C   UNL     1      -0.784  -1.233  -0.187  0.00  0.00    +0.000 C 
ATOM     19  N   UNL     1      -1.483  -0.008   0.219  0.00  0.00    +0.000 N 
ATOM     20  C   UNL     1      -0.814   1.235  -0.171  0.00  0.00    +0.000 C 
ATOM     21  C   UNL     1       0.682   1.212   0.201  0.00  0.00    +0.000 C 
ATOM     22  N   UNL     1       1.436   0.015  -0.260  0.00  0.00    +0.000 NA
ATOM     23  C   UNL     1      -2.695   0.060   0.914  0.00  0.00    +0.000 C 
ATOM     24  O   UNL     1      -3.121   1.141   1.326  0.00  0.00    +0.000 OA
BRANCH  23  25
ATOM     25  C   UNL     1      -3.421  -1.170   1.194  0.00  0.00    +0.000 A 
ATOM     26  C   UNL     1      -4.263  -1.491   2.244  0.00  0.00    +0.000 A 
ATOM     27  C   UNL     1      -4.658  -2.837   2.058  0.00  0.00    +0.000 A 
ATOM     28  C   UNL     1      -4.088  -3.241   0.875  0.00  0.00    +0.000 A 
ATOM     29  O   UNL     1      -3.374  -2.229   0.324  0.00  0.00    +0.000 OA
ENDBRANCH  23  25
ENDBRANCH  16  22
ENDBRANCH   1  16
TORSDOF 5
