REMARK  Name = 
REMARK  12 active torsions:
REMARK  status: ('A' for Active; 'I' for Inactive)
REMARK    1  A    between atoms: C_1  and  C_2
REMARK    2  A    between atoms: C_2  and  O_3
REMARK    3  A    between atoms: O_3  and  C_4
REMARK    4  A    between atoms: C_4  and  C_6
REMARK    5  A    between atoms: C_10  and  N_11
REMARK    6  A    between atoms: C_12  and  C_14
REMARK    7  A    between atoms: C_14  and  C_15
REMARK    8  A    between atoms: C_18  and  O_19
REMARK    9  A    between atoms: O_19  and  C_20
REMARK   10  A    between atoms: C_20  and  C_21
REMARK   11  A    between atoms: C_21  and  C_22
REMARK   12  A    between atoms: C_22  and  N_23
REMARK                            x       y       z     vdW  Elec       q    Type
REMARK                         _______ _______ _______ _____ _____    ______ ____
ROOT
ATOM      1  C   UNL     1       6.451   0.234  -2.833  0.00  0.00    +0.000 A 
ATOM      2  C   UNL     1       7.260  -0.862  -2.505  0.00  0.00    +0.000 A 
ATOM      3  C   UNL     1       6.888  -2.163  -2.873  0.00  0.00    +0.000 A 
ATOM      4  C   UNL     1       5.702  -2.387  -3.575  0.00  0.00    +0.000 A 
ATOM      5  C   UNL     1       4.912  -1.295  -3.932  0.00  0.00    +0.000 A 
ATOM      6  C   UNL     1       5.280   0.005  -3.564  0.00  0.00    +0.000 A 
ENDROOT
BRANCH   1   7
ATOM      7  C   UNL     1       6.835   1.636  -2.419  0.00  0.00    +0.000 C 
BRANCH   7   9
ATOM      8  N   UNL     1       7.210   3.549  -3.886  0.00  0.00    +0.000 N 
ATOM      9  C   UNL     1       7.739   2.348  -3.420  0.00  0.00    +0.000 C 
ATOM     10  O   UNL     1       8.857   1.916  -3.697  0.00  0.00    +0.000 OA
ATOM     11  H   UNL     1       6.588   4.046  -3.263  0.00  0.00    +0.000 HD
BRANCH   8  16
ATOM     12  C   UNL     1       8.568   4.087  -5.954  0.00  0.00    +0.000 A 
ATOM     13  C   UNL     1       9.322   5.236  -6.383  0.00  0.00    +0.000 A 
ATOM     14  C   UNL     1       9.225   6.292  -5.504  0.00  0.00    +0.000 A 
ATOM     15  S   UNL     1       8.181   5.934  -4.196  0.00  0.00    +0.000 S 
ATOM     16  C   UNL     1       7.959   4.340  -4.740  0.00  0.00    +0.000 A 
BRANCH  12  17
ATOM     17  C   UNL     1       8.422   2.844  -6.684  0.00  0.00    +0.000 C 
ATOM     18  O   UNL     1       7.462   2.085  -6.556  0.00  0.00    +0.000 OA
BRANCH  17  19
ATOM     19  O   UNL     1       9.490   2.596  -7.499  0.00  0.00    +0.000 OA
BRANCH  19  21
ATOM     20  C   UNL     1      10.445   0.609  -6.596  0.00  0.00    +0.000 C 
ATOM     21  C   UNL     1       9.692   1.206  -7.772  0.00  0.00    +0.000 C 
ENDBRANCH  19  21
ENDBRANCH  17  19
ENDBRANCH  12  17
ENDBRANCH   8  16
ENDBRANCH   7   9
ENDBRANCH   1   7
BRANCH   4  22
ATOM     22  O   UNL     1       5.250  -3.613  -4.000  0.00  0.00    +0.000 OA
BRANCH  22  23
ATOM     23  C   UNL     1       5.619  -4.713  -3.172  0.00  0.00    +0.000 C 
BRANCH  23  24
ATOM     24  C   UNL     1       5.013  -6.002  -3.732  0.00  0.00    +0.000 C 
BRANCH  24  25
ATOM     25  C   UNL     1       5.392  -7.184  -2.845  0.00  0.00    +0.000 C 
BRANCH  25  26
ATOM     26  N   UNL     1       4.850  -8.459  -3.338  0.00  0.00    +0.000 N 
ATOM     27  C   UNL     1       5.054  -9.637  -2.729  0.00  0.00    +0.000 C 
ATOM     28  N   UNL     1       5.774  -9.737  -1.606  0.00  0.00    +0.000 N 
ATOM     29  N   UNL     1       4.532 -10.755  -3.246  0.00  0.00    +0.000 N 
ATOM     30  H   UNL     1       4.296  -8.457  -4.189  0.00  0.00    +0.000 HD
ATOM     31  H   UNL     1       6.191  -8.925  -1.175  0.00  0.00    +0.000 HD
ATOM     32  H   UNL     1       5.928 -10.625  -1.149  0.00  0.00    +0.000 HD
ATOM     33  H   UNL     1       3.981 -10.748  -4.096  0.00  0.00    +0.000 HD
ATOM     34  H   UNL     1       4.673 -11.656  -2.805  0.00  0.00    +0.000 HD
ENDBRANCH  25  26
ENDBRANCH  24  25
ENDBRANCH  23  24
ENDBRANCH  22  23
ENDBRANCH   4  22
TORSDOF 11
