REMARK  Name = 
REMARK  13 active torsions:
REMARK  status: ('A' for Active; 'I' for Inactive)
REMARK    1  A    between atoms: C_1  and  C_2
REMARK    2  A    between atoms: C_2  and  O_3
REMARK    3  A    between atoms: O_3  and  C_4
REMARK    4  A    between atoms: C_4  and  C_6
REMARK    5  A    between atoms: C_10  and  N_11
REMARK    6  A    between atoms: C_12  and  C_14
REMARK    7  A    between atoms: C_14  and  C_15
REMARK    8  A    between atoms: C_18  and  O_19
REMARK    9  A    between atoms: O_19  and  C_20
REMARK   10  A    between atoms: C_20  and  C_21
REMARK   11  A    between atoms: C_21  and  N_22
REMARK   12  A    between atoms: N_22  and  C_23
REMARK   13  A    between atoms: N_22  and  C_24
REMARK                            x       y       z     vdW  Elec       q    Type
REMARK                         _______ _______ _______ _____ _____    ______ ____
ROOT
ATOM      1  N   UNL     1       7.294   3.822  -3.602  0.00  0.00    +0.000 N 
ATOM      2  C   UNL     1       7.715   2.544  -3.257  0.00  0.00    +0.000 C 
ATOM      3  O   UNL     1       8.795   2.047  -3.573  0.00  0.00    +0.000 OA
ATOM      4  H   UNL     1       6.727   4.320  -2.931  0.00  0.00    +0.000 HD
ENDROOT
BRANCH   1   9
ATOM      5  C   UNL     1       8.756   4.356  -5.600  0.00  0.00    +0.000 A 
ATOM      6  C   UNL     1       9.569   5.497  -5.944  0.00  0.00    +0.000 A 
ATOM      7  C   UNL     1       9.413   6.548  -5.065  0.00  0.00    +0.000 A 
ATOM      8  S   UNL     1       8.241   6.202  -3.870  0.00  0.00    +0.000 S 
ATOM      9  C   UNL     1       8.073   4.607  -4.426  0.00  0.00    +0.000 A 
BRANCH   5  10
ATOM     10  C   UNL     1       8.654   3.119  -6.363  0.00  0.00    +0.000 C 
ATOM     11  O   UNL     1       7.682   2.369  -6.324  0.00  0.00    +0.000 OA
BRANCH  10  12
ATOM     12  O   UNL     1       9.772   2.890  -7.109  0.00  0.00    +0.000 OA
BRANCH  12  14
ATOM     13  C   UNL     1      10.632   0.805  -6.317  0.00  0.00    +0.000 C 
ATOM     14  C   UNL     1       9.967   1.521  -7.480  0.00  0.00    +0.000 C 
ENDBRANCH  12  14
ENDBRANCH  10  12
ENDBRANCH   5  10
ENDBRANCH   1   9
BRANCH   2  15
ATOM     15  C   UNL     1       6.740   1.822  -2.340  0.00  0.00    +0.000 C 
BRANCH  15  16
ATOM     16  C   UNL     1       6.376   0.441  -2.832  0.00  0.00    +0.000 A 
ATOM     17  C   UNL     1       7.157  -0.668  -2.488  0.00  0.00    +0.000 A 
ATOM     18  C   UNL     1       6.834  -1.945  -2.955  0.00  0.00    +0.000 A 
ATOM     19  C   UNL     1       5.725  -2.136  -3.784  0.00  0.00    +0.000 A 
ATOM     20  C   UNL     1       4.947  -1.031  -4.136  0.00  0.00    +0.000 A 
ATOM     21  C   UNL     1       5.271   0.248  -3.670  0.00  0.00    +0.000 A 
BRANCH  19  22
ATOM     22  O   UNL     1       5.318  -3.336  -4.317  0.00  0.00    +0.000 OA
BRANCH  22  23
ATOM     23  C   UNL     1       6.059  -4.484  -3.897  0.00  0.00    +0.000 C 
BRANCH  23  24
ATOM     24  C   UNL     1       5.460  -5.732  -4.555  0.00  0.00    +0.000 C 
BRANCH  24  25
ATOM     25  N   UNL     1       5.419  -5.630  -6.073  0.00  0.00    +0.000 N 
ATOM     26  C   UNL     1       6.764  -5.450  -6.720  0.00  0.00    +0.000 C 
ATOM     27  C   UNL     1       4.680  -6.796  -6.674  0.00  0.00    +0.000 C 
ATOM     28  H   UNL     1       4.876  -4.775  -6.277  0.00  0.00    +0.000 HD
ENDBRANCH  24  25
ENDBRANCH  23  24
ENDBRANCH  22  23
ENDBRANCH  19  22
ENDBRANCH  15  16
ENDBRANCH   2  15
TORSDOF 10
