MODEL 1
REMARK minimizedAffinity -8.34521675
REMARK minimizedRMSD -1
REMARK  Name = 
REMARK  13 active torsions:
REMARK  status: ('A' for Active; 'I' for Inactive)
REMARK    1  A    between atoms: C_1  and  C_2
REMARK    2  A    between atoms: C_2  and  O_3
REMARK    3  A    between atoms: O_3  and  C_4
REMARK    4  A    between atoms: C_4  and  C_6
REMARK    5  A    between atoms: C_10  and  N_11
REMARK    6  A    between atoms: C_12  and  C_14
REMARK    7  A    between atoms: C_14  and  C_15
REMARK    8  A    between atoms: C_18  and  O_19
REMARK    9  A    between atoms: O_19  and  C_20
REMARK   10  A    between atoms: C_20  and  C_21
REMARK   11  A    between atoms: C_21  and  N_22
REMARK   12  A    between atoms: N_22  and  C_23
REMARK   13  A    between atoms: N_22  and  C_24
REMARK                            x       y       z     vdW  Elec       q    Type
REMARK                         _______ _______ _______ _____ _____    ______ ____
ROOT
ATOM      1  N   UNL     1      28.219  -6.201  41.992  0.00  0.00    +0.000 N 
ATOM      2  C   UNL     1      27.263  -5.312  41.517  0.00  0.00    +0.000 C 
ATOM      3  O   UNL     1      26.700  -4.453  42.194  0.00  0.00    +0.000 OA
ATOM      4  H   UNL     1      28.961  -6.465  41.360  0.00  0.00    +0.000 HD
ENDROOT
BRANCH   1   9
ATOM      5  C   UNL     1      28.256  -7.095  44.361  0.00  0.00    +0.000 A 
ATOM      6  C   UNL     1      28.688  -6.529  45.616  0.00  0.00    +0.000 A 
ATOM      7  C   UNL     1      29.317  -5.312  45.465  0.00  0.00    +0.000 A 
ATOM      8  S   UNL     1      29.459  -4.876  43.818  0.00  0.00    +0.000 S 
ATOM      9  C   UNL     1      28.541  -6.218  43.332  0.00  0.00    +0.000 A 
BRANCH   5  10
ATOM     10  C   UNL     1      27.618  -8.392  44.184  0.00  0.00    +0.000 C 
ATOM     11  O   UNL     1      27.476  -8.942  43.095  0.00  0.00    +0.000 OA
BRANCH  10  12
ATOM     12  O   UNL     1      27.185  -8.910  45.368  0.00  0.00    +0.000 OA
BRANCH  12  14
ATOM     13  C   UNL     1      26.912 -10.815  46.787  0.00  0.00    +0.000 C 
ATOM     14  C   UNL     1      27.775 -10.167  45.717  0.00  0.00    +0.000 C 
ENDBRANCH  12  14
ENDBRANCH  10  12
ENDBRANCH   5  10
ENDBRANCH   1   9
BRANCH   2  15
ATOM     15  C   UNL     1      27.035  -5.425  40.018  0.00  0.00    +0.000 C 
BRANCH  15  16
ATOM     16  C   UNL     1      25.578  -5.575  39.649  0.00  0.00    +0.000 A 
ATOM     17  C   UNL     1      24.871  -6.734  39.989  0.00  0.00    +0.000 A 
ATOM     18  C   UNL     1      23.527  -6.883  39.635  0.00  0.00    +0.000 A 
ATOM     19  C   UNL     1      22.866  -5.877  38.925  0.00  0.00    +0.000 A 
ATOM     20  C   UNL     1      23.569  -4.722  38.578  0.00  0.00    +0.000 A 
ATOM     21  C   UNL     1      24.915  -4.572  38.931  0.00  0.00    +0.000 A 
BRANCH  19  22
ATOM     22  O   UNL     1      21.556  -5.916  38.509  0.00  0.00    +0.000 OA
BRANCH  22  23
ATOM     23  C   UNL     1      21.335  -5.606  37.131  0.00  0.00    +0.000 C 
BRANCH  23  24
ATOM     24  C   UNL     1      22.330  -6.398  36.276  0.00  0.00    +0.000 C 
BRANCH  24  25
ATOM     25  N   UNL     1      22.363  -5.926  34.829  0.00  0.00    +0.000 N 
ATOM     26  C   UNL     1      23.742  -5.828  34.240  0.00  0.00    +0.000 C 
ATOM     27  C   UNL     1      21.462  -6.766  33.964  0.00  0.00    +0.000 C 
ATOM     28  H   UNL     1      21.979  -4.966  34.844  0.00  0.00    +0.000 HD
ENDBRANCH  24  25
ENDBRANCH  23  24
ENDBRANCH  22  23
ENDBRANCH  19  22
ENDBRANCH  15  16
ENDBRANCH   2  15
TORSDOF 10
ENDMDL
MODEL 2
REMARK minimizedAffinity -8.13514137
REMARK minimizedRMSD -1
REMARK  Name = 
REMARK  13 active torsions:
REMARK  status: ('A' for Active; 'I' for Inactive)
REMARK    1  A    between atoms: C_1  and  C_2
REMARK    2  A    between atoms: C_2  and  O_3
REMARK    3  A    between atoms: O_3  and  C_4
REMARK    4  A    between atoms: C_4  and  C_6
REMARK    5  A    between atoms: C_10  and  N_11
REMARK    6  A    between atoms: C_12  and  C_14
REMARK    7  A    between atoms: C_14  and  C_15
REMARK    8  A    between atoms: C_18  and  O_19
REMARK    9  A    between atoms: O_19  and  C_20
REMARK   10  A    between atoms: C_20  and  C_21
REMARK   11  A    between atoms: C_21  and  N_22
REMARK   12  A    between atoms: N_22  and  C_23
REMARK   13  A    between atoms: N_22  and  C_24
REMARK                            x       y       z     vdW  Elec       q    Type
REMARK                         _______ _______ _______ _____ _____    ______ ____
ROOT
ATOM      1  N   UNL     1      27.895  -5.770  41.351  0.00  0.00    +0.000 N 
ATOM      2  C   UNL     1      27.917  -5.175  42.606  0.00  0.00    +0.000 C 
ATOM      3  O   UNL     1      26.954  -5.098  43.368  0.00  0.00    +0.000 OA
ATOM      4  H   UNL     1      28.732  -6.248  41.050  0.00  0.00    +0.000 HD
ENDROOT
BRANCH   1   9
ATOM      5  C   UNL     1      26.119  -7.505  40.851  0.00  0.00    +0.000 A 
ATOM      6  C   UNL     1      24.957  -7.501  39.996  0.00  0.00    +0.000 A 
ATOM      7  C   UNL     1      24.704  -6.263  39.445  0.00  0.00    +0.000 A 
ATOM      8  S   UNL     1      25.809  -5.085  40.004  0.00  0.00    +0.000 S 
ATOM      9  C   UNL     1      26.711  -6.257  40.838  0.00  0.00    +0.000 A 
BRANCH   5  10
ATOM     10  C   UNL     1      26.608  -8.640  41.622  0.00  0.00    +0.000 C 
ATOM     11  O   UNL     1      26.902  -9.726  41.129  0.00  0.00    +0.000 OA
BRANCH  10  12
ATOM     12  O   UNL     1      26.684  -8.355  42.953  0.00  0.00    +0.000 OA
BRANCH  12  14
ATOM     13  C   UNL     1      27.674  -8.848  45.072  0.00  0.00    +0.000 C 
ATOM     14  C   UNL     1      27.911  -8.749  43.575  0.00  0.00    +0.000 C 
ENDBRANCH  12  14
ENDBRANCH  10  12
ENDBRANCH   5  10
ENDBRANCH   1   9
BRANCH   2  15
ATOM     15  C   UNL     1      29.302  -4.700  43.017  0.00  0.00    +0.000 C 
BRANCH  15  16
ATOM     16  C   UNL     1      29.426  -4.450  44.501  0.00  0.00    +0.000 A 
ATOM     17  C   UNL     1      29.399  -3.146  45.010  0.00  0.00    +0.000 A 
ATOM     18  C   UNL     1      29.530  -2.908  46.381  0.00  0.00    +0.000 A 
ATOM     19  C   UNL     1      29.701  -3.973  47.270  0.00  0.00    +0.000 A 
ATOM     20  C   UNL     1      29.737  -5.275  46.767  0.00  0.00    +0.000 A 
ATOM     21  C   UNL     1      29.607  -5.513  45.394  0.00  0.00    +0.000 A 
BRANCH  19  22
ATOM     22  O   UNL     1      29.857  -3.864  48.632  0.00  0.00    +0.000 OA
BRANCH  22  23
ATOM     23  C   UNL     1      30.345  -2.605  49.101  0.00  0.00    +0.000 C 
BRANCH  23  24
ATOM     24  C   UNL     1      29.285  -1.966  50.005  0.00  0.00    +0.000 C 
BRANCH  24  25
ATOM     25  N   UNL     1      29.502  -0.471  50.193  0.00  0.00    +0.000 N 
ATOM     26  C   UNL     1      28.870   0.097  51.433  0.00  0.00    +0.000 C 
ATOM     27  C   UNL     1      30.965  -0.123  50.122  0.00  0.00    +0.000 C 
ATOM     28  H   UNL     1      29.032  -0.022  49.390  0.00  0.00    +0.000 HD
ENDBRANCH  24  25
ENDBRANCH  23  24
ENDBRANCH  22  23
ENDBRANCH  19  22
ENDBRANCH  15  16
ENDBRANCH   2  15
TORSDOF 10
ENDMDL
MODEL 3
REMARK minimizedAffinity -7.98082781
REMARK minimizedRMSD -1
REMARK  Name = 
REMARK  13 active torsions:
REMARK  status: ('A' for Active; 'I' for Inactive)
REMARK    1  A    between atoms: C_1  and  C_2
REMARK    2  A    between atoms: C_2  and  O_3
REMARK    3  A    between atoms: O_3  and  C_4
REMARK    4  A    between atoms: C_4  and  C_6
REMARK    5  A    between atoms: C_10  and  N_11
REMARK    6  A    between atoms: C_12  and  C_14
REMARK    7  A    between atoms: C_14  and  C_15
REMARK    8  A    between atoms: C_18  and  O_19
REMARK    9  A    between atoms: O_19  and  C_20
REMARK   10  A    between atoms: C_20  and  C_21
REMARK   11  A    between atoms: C_21  and  N_22
REMARK   12  A    between atoms: N_22  and  C_23
REMARK   13  A    between atoms: N_22  and  C_24
REMARK                            x       y       z     vdW  Elec       q    Type
REMARK                         _______ _______ _______ _____ _____    ______ ____
ROOT
ATOM      1  N   UNL     1      28.327  -6.158  41.862  0.00  0.00    +0.000 N 
ATOM      2  C   UNL     1      28.379  -5.838  43.212  0.00  0.00    +0.000 C 
ATOM      3  O   UNL     1      27.574  -6.221  44.060  0.00  0.00    +0.000 OA
ATOM      4  H   UNL     1      29.207  -6.275  41.379  0.00  0.00    +0.000 HD
ENDROOT
BRANCH   1   9
ATOM      5  C   UNL     1      26.119  -6.550  40.686  0.00  0.00    +0.000 A 
ATOM      6  C   UNL     1      25.260  -7.704  40.569  0.00  0.00    +0.000 A 
ATOM      7  C   UNL     1      25.824  -8.845  41.100  0.00  0.00    +0.000 A 
ATOM      8  S   UNL     1      27.409  -8.557  41.673  0.00  0.00    +0.000 S 
ATOM      9  C   UNL     1      27.271  -6.893  41.365  0.00  0.00    +0.000 A 
BRANCH   5  10
ATOM     10  C   UNL     1      25.833  -5.218  40.169  0.00  0.00    +0.000 C 
ATOM     11  O   UNL     1      26.029  -4.183  40.801  0.00  0.00    +0.000 OA
BRANCH  10  12
ATOM     12  O   UNL     1      25.310  -5.263  38.911  0.00  0.00    +0.000 OA
BRANCH  12  14
ATOM     13  C   UNL     1      23.654  -4.623  37.311  0.00  0.00    +0.000 C 
ATOM     14  C   UNL     1      24.014  -4.668  38.786  0.00  0.00    +0.000 C 
ENDBRANCH  12  14
ENDBRANCH  10  12
ENDBRANCH   5  10
ENDBRANCH   1   9
BRANCH   2  15
ATOM     15  C   UNL     1      29.612  -5.031  43.587  0.00  0.00    +0.000 C 
BRANCH  15  16
ATOM     16  C   UNL     1      29.620  -4.601  45.036  0.00  0.00    +0.000 A 
ATOM     17  C   UNL     1      30.051  -5.478  46.037  0.00  0.00    +0.000 A 
ATOM     18  C   UNL     1      30.045  -5.091  47.380  0.00  0.00    +0.000 A 
ATOM     19  C   UNL     1      29.598  -3.818  47.748  0.00  0.00    +0.000 A 
ATOM     20  C   UNL     1      29.159  -2.943  46.752  0.00  0.00    +0.000 A 
ATOM     21  C   UNL     1      29.164  -3.331  45.408  0.00  0.00    +0.000 A 
BRANCH  19  22
ATOM     22  O   UNL     1      29.529  -3.331  49.032  0.00  0.00    +0.000 OA
BRANCH  22  23
ATOM     23  C   UNL     1      29.935  -1.971  49.201  0.00  0.00    +0.000 C 
BRANCH  23  24
ATOM     24  C   UNL     1      29.215  -1.384  50.420  0.00  0.00    +0.000 C 
BRANCH  24  25
ATOM     25  N   UNL     1      29.630   0.051  50.709  0.00  0.00    +0.000 N 
ATOM     26  C   UNL     1      29.113   0.597  52.011  0.00  0.00    +0.000 C 
ATOM     27  C   UNL     1      31.124   0.213  50.609  0.00  0.00    +0.000 C 
ATOM     28  H   UNL     1      29.202   0.619  49.960  0.00  0.00    +0.000 HD
ENDBRANCH  24  25
ENDBRANCH  23  24
ENDBRANCH  22  23
ENDBRANCH  19  22
ENDBRANCH  15  16
ENDBRANCH   2  15
TORSDOF 10
ENDMDL
MODEL 4
REMARK minimizedAffinity -7.86303997
REMARK minimizedRMSD -1
REMARK  Name = 
REMARK  13 active torsions:
REMARK  status: ('A' for Active; 'I' for Inactive)
REMARK    1  A    between atoms: C_1  and  C_2
REMARK    2  A    between atoms: C_2  and  O_3
REMARK    3  A    between atoms: O_3  and  C_4
REMARK    4  A    between atoms: C_4  and  C_6
REMARK    5  A    between atoms: C_10  and  N_11
REMARK    6  A    between atoms: C_12  and  C_14
REMARK    7  A    between atoms: C_14  and  C_15
REMARK    8  A    between atoms: C_18  and  O_19
REMARK    9  A    between atoms: O_19  and  C_20
REMARK   10  A    between atoms: C_20  and  C_21
REMARK   11  A    between atoms: C_21  and  N_22
REMARK   12  A    between atoms: N_22  and  C_23
REMARK   13  A    between atoms: N_22  and  C_24
REMARK                            x       y       z     vdW  Elec       q    Type
REMARK                         _______ _______ _______ _____ _____    ______ ____
ROOT
ATOM      1  N   UNL     1      22.514  -6.633  36.360  0.00  0.00    +0.000 N 
ATOM      2  C   UNL     1      22.205  -5.720  37.360  0.00  0.00    +0.000 C 
ATOM      3  O   UNL     1      21.813  -4.570  37.170  0.00  0.00    +0.000 OA
ATOM      4  H   UNL     1      22.308  -7.605  36.539  0.00  0.00    +0.000 HD
ENDROOT
BRANCH   1   9
ATOM      5  C   UNL     1      21.455  -6.182  34.103  0.00  0.00    +0.000 A 
ATOM      6  C   UNL     1      22.005  -5.883  32.804  0.00  0.00    +0.000 A 
ATOM      7  C   UNL     1      23.369  -5.682  32.835  0.00  0.00    +0.000 A 
ATOM      8  S   UNL     1      23.985  -5.778  34.426  0.00  0.00    +0.000 S 
ATOM      9  C   UNL     1      22.472  -6.248  35.036  0.00  0.00    +0.000 A 
BRANCH   5  10
ATOM     10  C   UNL     1      20.045  -6.384  34.408  0.00  0.00    +0.000 C 
ATOM     11  O   UNL     1      19.592  -6.441  35.548  0.00  0.00    +0.000 OA
BRANCH  10  12
ATOM     12  O   UNL     1      19.297  -6.518  33.276  0.00  0.00    +0.000 OA
BRANCH  12  14
ATOM     13  C   UNL     1      17.259  -5.720  32.315  0.00  0.00    +0.000 C 
ATOM     14  C   UNL     1      18.616  -5.326  32.870  0.00  0.00    +0.000 C 
ENDBRANCH  12  14
ENDBRANCH  10  12
ENDBRANCH   5  10
ENDBRANCH   1   9
BRANCH   2  15
ATOM     15  C   UNL     1      22.296  -6.313  38.757  0.00  0.00    +0.000 C 
BRANCH  15  16
ATOM     16  C   UNL     1      23.696  -6.281  39.324  0.00  0.00    +0.000 A 
ATOM     17  C   UNL     1      24.233  -7.403  39.964  0.00  0.00    +0.000 A 
ATOM     18  C   UNL     1      25.521  -7.372  40.505  0.00  0.00    +0.000 A 
ATOM     19  C   UNL     1      26.296  -6.212  40.423  0.00  0.00    +0.000 A 
ATOM     20  C   UNL     1      25.761  -5.087  39.792  0.00  0.00    +0.000 A 
ATOM     21  C   UNL     1      24.471  -5.117  39.251  0.00  0.00    +0.000 A 
BRANCH  19  22
ATOM     22  O   UNL     1      27.564  -6.056  40.929  0.00  0.00    +0.000 OA
BRANCH  22  23
ATOM     23  C   UNL     1      27.695  -5.107  41.991  0.00  0.00    +0.000 C 
BRANCH  23  24
ATOM     24  C   UNL     1      27.758  -5.857  43.325  0.00  0.00    +0.000 C 
BRANCH  24  25
ATOM     25  N   UNL     1      28.892  -5.371  44.217  0.00  0.00    +0.000 N 
ATOM     26  C   UNL     1      28.841  -3.904  44.542  0.00  0.00    +0.000 C 
ATOM     27  C   UNL     1      28.990  -6.201  45.469  0.00  0.00    +0.000 C 
ATOM     28  H   UNL     1      29.756  -5.523  43.671  0.00  0.00    +0.000 HD
ENDBRANCH  24  25
ENDBRANCH  23  24
ENDBRANCH  22  23
ENDBRANCH  19  22
ENDBRANCH  15  16
ENDBRANCH   2  15
TORSDOF 10
ENDMDL
MODEL 5
REMARK minimizedAffinity -7.52858829
REMARK minimizedRMSD -1
REMARK  Name = 
REMARK  13 active torsions:
REMARK  status: ('A' for Active; 'I' for Inactive)
REMARK    1  A    between atoms: C_1  and  C_2
REMARK    2  A    between atoms: C_2  and  O_3
REMARK    3  A    between atoms: O_3  and  C_4
REMARK    4  A    between atoms: C_4  and  C_6
REMARK    5  A    between atoms: C_10  and  N_11
REMARK    6  A    between atoms: C_12  and  C_14
REMARK    7  A    between atoms: C_14  and  C_15
REMARK    8  A    between atoms: C_18  and  O_19
REMARK    9  A    between atoms: O_19  and  C_20
REMARK   10  A    between atoms: C_20  and  C_21
REMARK   11  A    between atoms: C_21  and  N_22
REMARK   12  A    between atoms: N_22  and  C_23
REMARK   13  A    between atoms: N_22  and  C_24
REMARK                            x       y       z     vdW  Elec       q    Type
REMARK                         _______ _______ _______ _____ _____    ______ ____
ROOT
ATOM      1  N   UNL     1      27.631  -6.271  43.726  0.00  0.00    +0.000 N 
ATOM      2  C   UNL     1      27.987  -6.240  42.384  0.00  0.00    +0.000 C 
ATOM      3  O   UNL     1      28.691  -7.076  41.820  0.00  0.00    +0.000 OA
ATOM      4  H   UNL     1      26.714  -5.927  43.970  0.00  0.00    +0.000 HD
ENDROOT
BRANCH   1   9
ATOM      5  C   UNL     1      29.144  -7.253  45.504  0.00  0.00    +0.000 A 
ATOM      6  C   UNL     1      29.393  -8.604  45.944  0.00  0.00    +0.000 A 
ATOM      7  C   UNL     1      28.543  -9.520  45.361  0.00  0.00    +0.000 A 
ATOM      8  S   UNL     1      27.399  -8.761  44.344  0.00  0.00    +0.000 S 
ATOM      9  C   UNL     1      28.142  -7.249  44.554  0.00  0.00    +0.000 A 
BRANCH   5  10
ATOM     10  C   UNL     1      29.831  -6.059  45.980  0.00  0.00    +0.000 C 
ATOM     11  O   UNL     1      30.954  -5.724  45.614  0.00  0.00    +0.000 OA
BRANCH  10  12
ATOM     12  O   UNL     1      29.083  -5.373  46.891  0.00  0.00    +0.000 OA
BRANCH  12  14
ATOM     13  C   UNL     1      29.216  -3.084  46.215  0.00  0.00    +0.000 C 
ATOM     14  C   UNL     1      29.625  -4.102  47.266  0.00  0.00    +0.000 C 
ENDBRANCH  12  14
ENDBRANCH  10  12
ENDBRANCH   5  10
ENDBRANCH   1   9
BRANCH   2  15
ATOM     15  C   UNL     1      27.329  -5.102  41.619  0.00  0.00    +0.000 C 
BRANCH  15  16
ATOM     16  C   UNL     1      26.214  -5.565  40.711  0.00  0.00    +0.000 A 
ATOM     17  C   UNL     1      25.625  -4.684  39.798  0.00  0.00    +0.000 A 
ATOM     18  C   UNL     1      24.581  -5.103  38.968  0.00  0.00    +0.000 A 
ATOM     19  C   UNL     1      24.101  -6.414  39.043  0.00  0.00    +0.000 A 
ATOM     20  C   UNL     1      24.681  -7.294  39.958  0.00  0.00    +0.000 A 
ATOM     21  C   UNL     1      25.725  -6.875  40.790  0.00  0.00    +0.000 A 
BRANCH  19  22
ATOM     22  O   UNL     1      23.073  -6.936  38.294  0.00  0.00    +0.000 OA
BRANCH  22  23
ATOM     23  C   UNL     1      22.441  -6.027  37.390  0.00  0.00    +0.000 C 
BRANCH  23  24
ATOM     24  C   UNL     1      22.958  -6.294  35.972  0.00  0.00    +0.000 C 
BRANCH  24  25
ATOM     25  N   UNL     1      21.845  -6.677  35.006  0.00  0.00    +0.000 N 
ATOM     26  C   UNL     1      20.490  -6.141  35.376  0.00  0.00    +0.000 C 
ATOM     27  C   UNL     1      22.206  -6.310  33.591  0.00  0.00    +0.000 C 
ATOM     28  H   UNL     1      21.779  -7.707  35.057  0.00  0.00    +0.000 HD
ENDBRANCH  24  25
ENDBRANCH  23  24
ENDBRANCH  22  23
ENDBRANCH  19  22
ENDBRANCH  15  16
ENDBRANCH   2  15
TORSDOF 10
ENDMDL
