REMARK  Name = 
REMARK  14 active torsions:
REMARK  status: ('A' for Active; 'I' for Inactive)
REMARK    1  A    between atoms: C_1  and  C_2
REMARK    2  A    between atoms: C_2  and  O_3
REMARK    3  A    between atoms: O_3  and  C_4
REMARK    4  A    between atoms: C_4  and  C_6
REMARK    5  A    between atoms: C_10  and  N_11
REMARK    6  A    between atoms: C_12  and  C_14
REMARK    7  A    between atoms: C_14  and  C_15
REMARK    8  A    between atoms: C_18  and  O_19
REMARK    9  A    between atoms: O_19  and  C_20
REMARK   10  A    between atoms: C_20  and  C_21
REMARK   11  A    between atoms: C_21  and  C_22
REMARK   12  A    between atoms: C_22  and  N_23
REMARK   13  A    between atoms: N_23  and  C_24
REMARK   14  A    between atoms: N_23  and  C_25
REMARK                            x       y       z     vdW  Elec       q    Type
REMARK                         _______ _______ _______ _____ _____    ______ ____
ROOT
ATOM      1  C   UNL     1       7.125  -0.594   2.882  0.00  0.00    +0.000 C 
ENDROOT
BRANCH   1   2
ATOM      2  C   UNL     1       6.574   0.802   3.054  0.00  0.00    +0.000 A 
ATOM      3  C   UNL     1       5.262   0.990   3.503  0.00  0.00    +0.000 A 
ATOM      4  C   UNL     1       4.716   2.274   3.603  0.00  0.00    +0.000 A 
ATOM      5  C   UNL     1       5.479   3.383   3.247  0.00  0.00    +0.000 A 
ATOM      6  C   UNL     1       6.789   3.202   2.797  0.00  0.00    +0.000 A 
ATOM      7  C   UNL     1       7.337   1.919   2.695  0.00  0.00    +0.000 A 
BRANCH   5   8
ATOM      8  O   UNL     1       5.057   4.683   3.294  0.00  0.00    +0.000 OA
BRANCH   8   9
ATOM      9  C   UNL     1       3.693   4.908   3.660  0.00  0.00    +0.000 C 
BRANCH   9  10
ATOM     10  C   UNL     1       3.417   6.410   3.604  0.00  0.00    +0.000 C 
BRANCH  10  11
ATOM     11  C   UNL     1       4.350   7.239   4.488  0.00  0.00    +0.000 C 
BRANCH  11  12
ATOM     12  N   UNL     1       5.806   7.099   4.106  0.00  0.00    +0.000 N 
ATOM     13  C   UNL     1       6.140   7.586   2.723  0.00  0.00    +0.000 C 
ATOM     14  C   UNL     1       6.716   7.705   5.134  0.00  0.00    +0.000 C 
ATOM     15  H   UNL     1       5.999   6.082   4.089  0.00  0.00    +0.000 HD
ENDBRANCH  11  12
ENDBRANCH  10  11
ENDBRANCH   9  10
ENDBRANCH   8   9
ENDBRANCH   5   8
ENDBRANCH   1   2
BRANCH   1  17
ATOM     16  N   UNL     1       7.926  -1.708   0.875  0.00  0.00    +0.000 N 
ATOM     17  C   UNL     1       6.814  -1.176   1.512  0.00  0.00    +0.000 C 
ATOM     18  O   UNL     1       5.663  -1.210   1.075  0.00  0.00    +0.000 OA
ATOM     19  H   UNL     1       8.651  -2.100   1.460  0.00  0.00    +0.000 HD
BRANCH  16  24
ATOM     20  C   UNL     1       7.124  -1.859  -1.519  0.00  0.00    +0.000 A 
ATOM     21  C   UNL     1       7.116  -2.931  -2.482  0.00  0.00    +0.000 A 
ATOM     22  C   UNL     1       7.823  -4.035  -2.057  0.00  0.00    +0.000 A 
ATOM     23  S   UNL     1       8.555  -3.771  -0.534  0.00  0.00    +0.000 S 
ATOM     24  C   UNL     1       7.785  -2.266  -0.377  0.00  0.00    +0.000 A 
BRANCH  20  25
ATOM     25  C   UNL     1       6.530  -0.540  -1.691  0.00  0.00    +0.000 C 
ATOM     26  O   UNL     1       6.911   0.464  -1.096  0.00  0.00    +0.000 OA
BRANCH  25  27
ATOM     27  O   UNL     1       5.489  -0.559  -2.576  0.00  0.00    +0.000 OA
BRANCH  27  29
ATOM     28  C   UNL     1       3.596   0.215  -1.334  0.00  0.00    +0.000 C 
ATOM     29  C   UNL     1       4.578   0.539  -2.446  0.00  0.00    +0.000 C 
ENDBRANCH  27  29
ENDBRANCH  25  27
ENDBRANCH  20  25
ENDBRANCH  16  24
ENDBRANCH   1  17
TORSDOF 11
