MODEL 1
REMARK minimizedAffinity -8.62639904
REMARK minimizedRMSD -1
REMARK  Name = 
REMARK  14 active torsions:
REMARK  status: ('A' for Active; 'I' for Inactive)
REMARK    1  A    between atoms: C_1  and  C_2
REMARK    2  A    between atoms: C_2  and  O_3
REMARK    3  A    between atoms: O_3  and  C_4
REMARK    4  A    between atoms: C_4  and  C_6
REMARK    5  A    between atoms: C_10  and  N_11
REMARK    6  A    between atoms: C_12  and  C_14
REMARK    7  A    between atoms: C_14  and  C_15
REMARK    8  A    between atoms: C_18  and  O_19
REMARK    9  A    between atoms: O_19  and  C_20
REMARK   10  A    between atoms: C_20  and  C_21
REMARK   11  A    between atoms: C_21  and  C_22
REMARK   12  A    between atoms: C_22  and  N_23
REMARK   13  A    between atoms: N_23  and  C_24
REMARK   14  A    between atoms: N_23  and  C_25
REMARK                            x       y       z     vdW  Elec       q    Type
REMARK                         _______ _______ _______ _____ _____    ______ ____
ROOT
ATOM      1  C   UNL     1      26.961  -5.524  39.865  0.00  0.00    +0.000 C 
ENDROOT
BRANCH   1   2
ATOM      2  C   UNL     1      25.487  -5.624  39.551  0.00  0.00    +0.000 A 
ATOM      3  C   UNL     1      24.756  -6.745  39.960  0.00  0.00    +0.000 A 
ATOM      4  C   UNL     1      23.406  -6.883  39.619  0.00  0.00    +0.000 A 
ATOM      5  C   UNL     1      22.778  -5.901  38.858  0.00  0.00    +0.000 A 
ATOM      6  C   UNL     1      23.503  -4.780  38.446  0.00  0.00    +0.000 A 
ATOM      7  C   UNL     1      24.853  -4.640  38.785  0.00  0.00    +0.000 A 
BRANCH   5   8
ATOM      8  O   UNL     1      21.471  -5.925  38.456  0.00  0.00    +0.000 OA
BRANCH   8   9
ATOM      9  C   UNL     1      21.209  -5.609  37.086  0.00  0.00    +0.000 C 
BRANCH   9  10
ATOM     10  C   UNL     1      19.782  -6.042  36.752  0.00  0.00    +0.000 C 
BRANCH  10  11
ATOM     11  C   UNL     1      19.632  -6.635  35.350  0.00  0.00    +0.000 C 
BRANCH  11  12
ATOM     12  N   UNL     1      20.352  -5.834  34.290  0.00  0.00    +0.000 N 
ATOM     13  C   UNL     1      21.622  -6.464  33.785  0.00  0.00    +0.000 C 
ATOM     14  C   UNL     1      19.442  -5.456  33.158  0.00  0.00    +0.000 C 
ATOM     15  H   UNL     1      20.650  -4.956  34.749  0.00  0.00    +0.000 HD
ENDBRANCH  11  12
ENDBRANCH  10  11
ENDBRANCH   9  10
ENDBRANCH   8   9
ENDBRANCH   5   8
ENDBRANCH   1   2
BRANCH   1  17
ATOM     16  N   UNL     1      28.239  -6.101  41.851  0.00  0.00    +0.000 N 
ATOM     17  C   UNL     1      27.226  -5.300  41.346  0.00  0.00    +0.000 C 
ATOM     18  O   UNL     1      26.621  -4.436  41.983  0.00  0.00    +0.000 OA
ATOM     19  H   UNL     1      28.983  -6.360  41.218  0.00  0.00    +0.000 HD
BRANCH  16  24
ATOM     20  C   UNL     1      28.310  -6.791  44.284  0.00  0.00    +0.000 A 
ATOM     21  C   UNL     1      28.722  -6.107  45.483  0.00  0.00    +0.000 A 
ATOM     22  C   UNL     1      29.337  -4.901  45.224  0.00  0.00    +0.000 A 
ATOM     23  S   UNL     1      29.485  -4.612  43.545  0.00  0.00    +0.000 S 
ATOM     24  C   UNL     1      28.579  -6.002  43.183  0.00  0.00    +0.000 A 
BRANCH  20  25
ATOM     25  C   UNL     1      27.697  -8.111  44.210  0.00  0.00    +0.000 C 
ATOM     26  O   UNL     1      27.210  -8.582  43.187  0.00  0.00    +0.000 OA
BRANCH  25  27
ATOM     27  O   UNL     1      27.711  -8.749  45.419  0.00  0.00    +0.000 OA
BRANCH  27  29
ATOM     28  C   UNL     1      27.852 -10.942  46.365  0.00  0.00    +0.000 C 
ATOM     29  C   UNL     1      28.526  -9.927  45.459  0.00  0.00    +0.000 C 
ENDBRANCH  27  29
ENDBRANCH  25  27
ENDBRANCH  20  25
ENDBRANCH  16  24
ENDBRANCH   1  17
TORSDOF 11
ENDMDL
MODEL 2
REMARK minimizedAffinity -8.01710796
REMARK minimizedRMSD -1
REMARK  Name = 
REMARK  14 active torsions:
REMARK  status: ('A' for Active; 'I' for Inactive)
REMARK    1  A    between atoms: C_1  and  C_2
REMARK    2  A    between atoms: C_2  and  O_3
REMARK    3  A    between atoms: O_3  and  C_4
REMARK    4  A    between atoms: C_4  and  C_6
REMARK    5  A    between atoms: C_10  and  N_11
REMARK    6  A    between atoms: C_12  and  C_14
REMARK    7  A    between atoms: C_14  and  C_15
REMARK    8  A    between atoms: C_18  and  O_19
REMARK    9  A    between atoms: O_19  and  C_20
REMARK   10  A    between atoms: C_20  and  C_21
REMARK   11  A    between atoms: C_21  and  C_22
REMARK   12  A    between atoms: C_22  and  N_23
REMARK   13  A    between atoms: N_23  and  C_24
REMARK   14  A    between atoms: N_23  and  C_25
REMARK                            x       y       z     vdW  Elec       q    Type
REMARK                         _______ _______ _______ _____ _____    ______ ____
ROOT
ATOM      1  C   UNL     1      22.325  -6.387  38.708  0.00  0.00    +0.000 C 
ENDROOT
BRANCH   1   2
ATOM      2  C   UNL     1      23.737  -6.356  39.243  0.00  0.00    +0.000 A 
ATOM      3  C   UNL     1      24.253  -7.459  39.932  0.00  0.00    +0.000 A 
ATOM      4  C   UNL     1      25.535  -7.419  40.491  0.00  0.00    +0.000 A 
ATOM      5  C   UNL     1      26.310  -6.269  40.371  0.00  0.00    +0.000 A 
ATOM      6  C   UNL     1      25.800  -5.163  39.686  0.00  0.00    +0.000 A 
ATOM      7  C   UNL     1      24.518  -5.200  39.127  0.00  0.00    +0.000 A 
BRANCH   5   8
ATOM      8  O   UNL     1      27.569  -6.106  40.879  0.00  0.00    +0.000 OA
BRANCH   8   9
ATOM      9  C   UNL     1      27.775  -4.994  41.754  0.00  0.00    +0.000 C 
BRANCH   9  10
ATOM     10  C   UNL     1      27.560  -5.462  43.192  0.00  0.00    +0.000 C 
BRANCH  10  11
ATOM     11  C   UNL     1      28.373  -6.703  43.562  0.00  0.00    +0.000 C 
BRANCH  11  12
ATOM     12  N   UNL     1      27.542  -7.965  43.599  0.00  0.00    +0.000 N 
ATOM     13  C   UNL     1      27.938  -9.005  42.588  0.00  0.00    +0.000 C 
ATOM     14  C   UNL     1      27.467  -8.547  44.981  0.00  0.00    +0.000 C 
ATOM     15  H   UNL     1      26.582  -7.681  43.335  0.00  0.00    +0.000 HD
ENDBRANCH  11  12
ENDBRANCH  10  11
ENDBRANCH   9  10
ENDBRANCH   8   9
ENDBRANCH   5   8
ENDBRANCH   1   2
BRANCH   1  17
ATOM     16  N   UNL     1      22.646  -6.637  36.311  0.00  0.00    +0.000 N 
ATOM     17  C   UNL     1      22.218  -5.782  37.317  0.00  0.00    +0.000 C 
ATOM     18  O   UNL     1      21.732  -4.664  37.139  0.00  0.00    +0.000 OA
ATOM     19  H   UNL     1      22.525  -7.628  36.464  0.00  0.00    +0.000 HD
BRANCH  16  24
ATOM     20  C   UNL     1      21.641  -6.291  34.016  0.00  0.00    +0.000 A 
ATOM     21  C   UNL     1      22.202  -5.881  32.754  0.00  0.00    +0.000 A 
ATOM     22  C   UNL     1      23.507  -5.450  32.865  0.00  0.00    +0.000 A 
ATOM     23  S   UNL     1      24.044  -5.470  34.489  0.00  0.00    +0.000 S 
ATOM     24  C   UNL     1      22.605  -6.212  35.001  0.00  0.00    +0.000 A 
BRANCH  20  25
ATOM     25  C   UNL     1      20.272  -6.731  34.250  0.00  0.00    +0.000 C 
ATOM     26  O   UNL     1      19.609  -6.410  35.232  0.00  0.00    +0.000 OA
BRANCH  25  27
ATOM     27  O   UNL     1      19.823  -7.556  33.257  0.00  0.00    +0.000 OA
BRANCH  27  29
ATOM     28  C   UNL     1      19.045  -7.317  31.007  0.00  0.00    +0.000 C 
ATOM     29  C   UNL     1      18.760  -7.011  32.466  0.00  0.00    +0.000 C 
ENDBRANCH  27  29
ENDBRANCH  25  27
ENDBRANCH  20  25
ENDBRANCH  16  24
ENDBRANCH   1  17
TORSDOF 11
ENDMDL
MODEL 3
REMARK minimizedAffinity -7.94742727
REMARK minimizedRMSD -1
REMARK  Name = 
REMARK  14 active torsions:
REMARK  status: ('A' for Active; 'I' for Inactive)
REMARK    1  A    between atoms: C_1  and  C_2
REMARK    2  A    between atoms: C_2  and  O_3
REMARK    3  A    between atoms: O_3  and  C_4
REMARK    4  A    between atoms: C_4  and  C_6
REMARK    5  A    between atoms: C_10  and  N_11
REMARK    6  A    between atoms: C_12  and  C_14
REMARK    7  A    between atoms: C_14  and  C_15
REMARK    8  A    between atoms: C_18  and  O_19
REMARK    9  A    between atoms: O_19  and  C_20
REMARK   10  A    between atoms: C_20  and  C_21
REMARK   11  A    between atoms: C_21  and  C_22
REMARK   12  A    between atoms: C_22  and  N_23
REMARK   13  A    between atoms: N_23  and  C_24
REMARK   14  A    between atoms: N_23  and  C_25
REMARK                            x       y       z     vdW  Elec       q    Type
REMARK                         _______ _______ _______ _____ _____    ______ ____
ROOT
ATOM      1  C   UNL     1      29.060  -4.178  42.371  0.00  0.00    +0.000 C 
ENDROOT
BRANCH   1   2
ATOM      2  C   UNL     1      29.293  -4.203  43.864  0.00  0.00    +0.000 A 
ATOM      3  C   UNL     1      29.538  -5.415  44.518  0.00  0.00    +0.000 A 
ATOM      4  C   UNL     1      29.688  -5.462  45.908  0.00  0.00    +0.000 A 
ATOM      5  C   UNL     1      29.588  -4.293  46.657  0.00  0.00    +0.000 A 
ATOM      6  C   UNL     1      29.343  -3.079  46.010  0.00  0.00    +0.000 A 
ATOM      7  C   UNL     1      29.191  -3.030  44.621  0.00  0.00    +0.000 A 
BRANCH   5   8
ATOM      8  O   UNL     1      29.709  -4.210  48.017  0.00  0.00    +0.000 OA
BRANCH   8   9
ATOM      9  C   UNL     1      31.004  -3.892  48.534  0.00  0.00    +0.000 C 
BRANCH   9  10
ATOM     10  C   UNL     1      31.007  -2.426  48.966  0.00  0.00    +0.000 C 
BRANCH  10  11
ATOM     11  C   UNL     1      29.730  -1.998  49.691  0.00  0.00    +0.000 C 
BRANCH  11  12
ATOM     12  N   UNL     1      29.713  -0.527  50.040  0.00  0.00    +0.000 N 
ATOM     13  C   UNL     1      28.973  -0.192  51.306  0.00  0.00    +0.000 C 
ATOM     14  C   UNL     1      31.092   0.065  50.040  0.00  0.00    +0.000 C 
ATOM     15  H   UNL     1      29.181  -0.061  49.284  0.00  0.00    +0.000 HD
ENDBRANCH  11  12
ENDBRANCH  10  11
ENDBRANCH   9  10
ENDBRANCH   8   9
ENDBRANCH   5   8
ENDBRANCH   1   2
BRANCH   1  17
ATOM     16  N   UNL     1      27.677  -5.654  41.022  0.00  0.00    +0.000 N 
ATOM     17  C   UNL     1      27.669  -4.663  41.993  0.00  0.00    +0.000 C 
ATOM     18  O   UNL     1      26.664  -4.238  42.564  0.00  0.00    +0.000 OA
ATOM     19  H   UNL     1      28.474  -6.275  41.001  0.00  0.00    +0.000 HD
BRANCH  16  24
ATOM     20  C   UNL     1      25.913  -7.434  40.686  0.00  0.00    +0.000 A 
ATOM     21  C   UNL     1      24.737  -7.502  39.855  0.00  0.00    +0.000 A 
ATOM     22  C   UNL     1      24.444  -6.301  39.248  0.00  0.00    +0.000 A 
ATOM     23  S   UNL     1      25.533  -5.069  39.719  0.00  0.00    +0.000 S 
ATOM     24  C   UNL     1      26.482  -6.180  40.584  0.00  0.00    +0.000 A 
BRANCH  20  25
ATOM     25  C   UNL     1      26.448  -8.508  41.513  0.00  0.00    +0.000 C 
ATOM     26  O   UNL     1      26.645  -9.650  41.107  0.00  0.00    +0.000 OA
BRANCH  25  27
ATOM     27  O   UNL     1      26.686  -8.097  42.794  0.00  0.00    +0.000 OA
BRANCH  27  29
ATOM     28  C   UNL     1      27.564  -8.705  44.935  0.00  0.00    +0.000 C 
ATOM     29  C   UNL     1      27.788  -8.752  43.434  0.00  0.00    +0.000 C 
ENDBRANCH  27  29
ENDBRANCH  25  27
ENDBRANCH  20  25
ENDBRANCH  16  24
ENDBRANCH   1  17
TORSDOF 11
ENDMDL
MODEL 4
REMARK minimizedAffinity -7.88937378
REMARK minimizedRMSD -1
REMARK  Name = 
REMARK  14 active torsions:
REMARK  status: ('A' for Active; 'I' for Inactive)
REMARK    1  A    between atoms: C_1  and  C_2
REMARK    2  A    between atoms: C_2  and  O_3
REMARK    3  A    between atoms: O_3  and  C_4
REMARK    4  A    between atoms: C_4  and  C_6
REMARK    5  A    between atoms: C_10  and  N_11
REMARK    6  A    between atoms: C_12  and  C_14
REMARK    7  A    between atoms: C_14  and  C_15
REMARK    8  A    between atoms: C_18  and  O_19
REMARK    9  A    between atoms: O_19  and  C_20
REMARK   10  A    between atoms: C_20  and  C_21
REMARK   11  A    between atoms: C_21  and  C_22
REMARK   12  A    between atoms: C_22  and  N_23
REMARK   13  A    between atoms: N_23  and  C_24
REMARK   14  A    between atoms: N_23  and  C_25
REMARK                            x       y       z     vdW  Elec       q    Type
REMARK                         _______ _______ _______ _____ _____    ______ ____
ROOT
ATOM      1  C   UNL     1      27.849  -3.462  43.261  0.00  0.00    +0.000 C 
ENDROOT
BRANCH   1   2
ATOM      2  C   UNL     1      27.245  -4.595  42.466  0.00  0.00    +0.000 A 
ATOM      3  C   UNL     1      27.380  -5.916  42.908  0.00  0.00    +0.000 A 
ATOM      4  C   UNL     1      26.885  -6.981  42.149  0.00  0.00    +0.000 A 
ATOM      5  C   UNL     1      26.253  -6.732  40.933  0.00  0.00    +0.000 A 
ATOM      6  C   UNL     1      26.116  -5.416  40.485  0.00  0.00    +0.000 A 
ATOM      7  C   UNL     1      26.611  -4.350  41.242  0.00  0.00    +0.000 A 
BRANCH   5   8
ATOM      8  O   UNL     1      25.735  -7.685  40.100  0.00  0.00    +0.000 OA
BRANCH   8   9
ATOM      9  C   UNL     1      24.315  -7.847  40.105  0.00  0.00    +0.000 C 
BRANCH   9  10
ATOM     10  C   UNL     1      23.737  -7.101  38.903  0.00  0.00    +0.000 C 
BRANCH  10  11
ATOM     11  C   UNL     1      22.647  -6.093  39.271  0.00  0.00    +0.000 C 
BRANCH  11  12
ATOM     12  N   UNL     1      22.360  -5.103  38.166  0.00  0.00    +0.000 N 
ATOM     13  C   UNL     1      23.580  -4.587  37.454  0.00  0.00    +0.000 C 
ATOM     14  C   UNL     1      21.341  -5.625  37.196  0.00  0.00    +0.000 C 
ATOM     15  H   UNL     1      21.945  -4.274  38.627  0.00  0.00    +0.000 HD
ENDBRANCH  11  12
ENDBRANCH  10  11
ENDBRANCH   9  10
ENDBRANCH   8   9
ENDBRANCH   5   8
ENDBRANCH   1   2
BRANCH   1  17
ATOM     16  N   UNL     1      28.838  -4.033  45.407  0.00  0.00    +0.000 N 
ATOM     17  C   UNL     1      29.076  -3.895  44.047  0.00  0.00    +0.000 C 
ATOM     18  O   UNL     1      30.142  -4.149  43.485  0.00  0.00    +0.000 OA
ATOM     19  H   UNL     1      27.909  -4.314  45.688  0.00  0.00    +0.000 HD
BRANCH  16  24
ATOM     20  C   UNL     1      30.704  -3.718  47.085  0.00  0.00    +0.000 A 
ATOM     21  C   UNL     1      31.756  -4.585  47.553  0.00  0.00    +0.000 A 
ATOM     22  C   UNL     1      31.616  -5.882  47.107  0.00  0.00    +0.000 A 
ATOM     23  S   UNL     1      30.190  -6.084  46.183  0.00  0.00    +0.000 S 
ATOM     24  C   UNL     1      29.868  -4.418  46.238  0.00  0.00    +0.000 A 
BRANCH  20  25
ATOM     25  C   UNL     1      30.526  -2.314  47.431  0.00  0.00    +0.000 C 
ATOM     26  O   UNL     1      29.939  -1.505  46.718  0.00  0.00    +0.000 OA
BRANCH  25  27
ATOM     27  O   UNL     1      31.106  -2.004  48.628  0.00  0.00    +0.000 OA
BRANCH  27  29
ATOM     28  C   UNL     1      29.567  -1.185  50.268  0.00  0.00    +0.000 C 
ATOM     29  C   UNL     1      30.612  -0.803  49.234  0.00  0.00    +0.000 C 
ENDBRANCH  27  29
ENDBRANCH  25  27
ENDBRANCH  20  25
ENDBRANCH  16  24
ENDBRANCH   1  17
TORSDOF 11
ENDMDL
MODEL 5
REMARK minimizedAffinity -7.69259405
REMARK minimizedRMSD -1
REMARK  Name = 
REMARK  14 active torsions:
REMARK  status: ('A' for Active; 'I' for Inactive)
REMARK    1  A    between atoms: C_1  and  C_2
REMARK    2  A    between atoms: C_2  and  O_3
REMARK    3  A    between atoms: O_3  and  C_4
REMARK    4  A    between atoms: C_4  and  C_6
REMARK    5  A    between atoms: C_10  and  N_11
REMARK    6  A    between atoms: C_12  and  C_14
REMARK    7  A    between atoms: C_14  and  C_15
REMARK    8  A    between atoms: C_18  and  O_19
REMARK    9  A    between atoms: O_19  and  C_20
REMARK   10  A    between atoms: C_20  and  C_21
REMARK   11  A    between atoms: C_21  and  C_22
REMARK   12  A    between atoms: C_22  and  N_23
REMARK   13  A    between atoms: N_23  and  C_24
REMARK   14  A    between atoms: N_23  and  C_25
REMARK                            x       y       z     vdW  Elec       q    Type
REMARK                         _______ _______ _______ _____ _____    ______ ____
ROOT
ATOM      1  C   UNL     1      25.338  -4.549  40.173  0.00  0.00    +0.000 C 
ENDROOT
BRANCH   1   2
ATOM      2  C   UNL     1      24.349  -4.991  39.120  0.00  0.00    +0.000 A 
ATOM      3  C   UNL     1      23.341  -5.907  39.442  0.00  0.00    +0.000 A 
ATOM      4  C   UNL     1      22.460  -6.377  38.463  0.00  0.00    +0.000 A 
ATOM      5  C   UNL     1      22.586  -5.939  37.147  0.00  0.00    +0.000 A 
ATOM      6  C   UNL     1      23.591  -5.026  36.819  0.00  0.00    +0.000 A 
ATOM      7  C   UNL     1      24.474  -4.555  37.796  0.00  0.00    +0.000 A 
BRANCH   5   8
ATOM      8  O   UNL     1      21.794  -6.329  36.103  0.00  0.00    +0.000 OA
BRANCH   8   9
ATOM      9  C   UNL     1      20.419  -5.940  36.152  0.00  0.00    +0.000 C 
BRANCH   9  10
ATOM     10  C   UNL     1      19.705  -6.522  34.933  0.00  0.00    +0.000 C 
BRANCH  10  11
ATOM     11  C   UNL     1      20.203  -5.957  33.602  0.00  0.00    +0.000 C 
BRANCH  11  12
ATOM     12  N   UNL     1      21.579  -6.455  33.225  0.00  0.00    +0.000 N 
ATOM     13  C   UNL     1      21.629  -7.897  32.801  0.00  0.00    +0.000 C 
ATOM     14  C   UNL     1      22.241  -5.564  32.214  0.00  0.00    +0.000 C 
ATOM     15  H   UNL     1      22.146  -6.408  34.090  0.00  0.00    +0.000 HD
ENDBRANCH  11  12
ENDBRANCH  10  11
ENDBRANCH   9  10
ENDBRANCH   8   9
ENDBRANCH   5   8
ENDBRANCH   1   2
BRANCH   1  17
ATOM     16  N   UNL     1      25.854  -6.503  41.524  0.00  0.00    +0.000 N 
ATOM     17  C   UNL     1      26.325  -5.645  40.540  0.00  0.00    +0.000 C 
ATOM     18  O   UNL     1      27.401  -5.764  39.951  0.00  0.00    +0.000 OA
ATOM     19  H   UNL     1      24.856  -6.660  41.562  0.00  0.00    +0.000 HD
BRANCH  16  24
ATOM     20  C   UNL     1      27.642  -7.633  42.911  0.00  0.00    +0.000 A 
ATOM     21  C   UNL     1      28.308  -8.906  42.799  0.00  0.00    +0.000 A 
ATOM     22  C   UNL     1      27.747  -9.719  41.838  0.00  0.00    +0.000 A 
ATOM     23  S   UNL     1      26.380  -8.991  41.112  0.00  0.00    +0.000 S 
ATOM     24  C   UNL     1      26.651  -7.541  41.953  0.00  0.00    +0.000 A 
BRANCH  20  25
ATOM     25  C   UNL     1      27.946  -6.581  43.872  0.00  0.00    +0.000 C 
ATOM     26  O   UNL     1      28.389  -6.791  44.998  0.00  0.00    +0.000 OA
BRANCH  25  27
ATOM     27  O   UNL     1      27.662  -5.339  43.379  0.00  0.00    +0.000 OA
BRANCH  27  29
ATOM     28  C   UNL     1      28.339  -3.201  42.545  0.00  0.00    +0.000 C 
ATOM     29  C   UNL     1      28.812  -4.560  43.030  0.00  0.00    +0.000 C 
ENDBRANCH  27  29
ENDBRANCH  25  27
ENDBRANCH  20  25
ENDBRANCH  16  24
ENDBRANCH   1  17
TORSDOF 11
ENDMDL
