REMARK  Name = 
REMARK  9 active torsions:
REMARK  status: ('A' for Active; 'I' for Inactive)
REMARK    1  A    between atoms: C_1  and  C_2
REMARK    2  A    between atoms: C_2  and  O_3
REMARK    3  A    between atoms: O_3  and  C_4
REMARK    4  A    between atoms: C_4  and  C_6
REMARK    5  A    between atoms: C_10  and  N_11
REMARK    6  A    between atoms: C_12  and  C_14
REMARK    7  A    between atoms: C_14  and  C_15
REMARK    8  A    between atoms: C_18  and  C_19
REMARK    9  A    between atoms: C_19  and  N_20
REMARK                            x       y       z     vdW  Elec       q    Type
REMARK                         _______ _______ _______ _____ _____    ______ ____
ROOT
ATOM      1  N   UNL     1       8.767   4.560   2.092  0.00  0.00    +0.000 N 
ATOM      2  C   UNL     1       8.604   3.624   1.076  0.00  0.00    +0.000 C 
ATOM      3  O   UNL     1       9.516   3.076   0.460  0.00  0.00    +0.000 OA
ATOM      4  H   UNL     1       8.097   4.552   2.850  0.00  0.00    +0.000 HD
ENDROOT
BRANCH   1   9
ATOM      5  C   UNL     1      11.104   5.415   1.649  0.00  0.00    +0.000 A 
ATOM      6  C   UNL     1      12.254   5.616   2.494  0.00  0.00    +0.000 A 
ATOM      7  C   UNL     1      11.965   5.445   3.831  0.00  0.00    +0.000 A 
ATOM      8  S   UNL     1      10.309   5.104   4.083  0.00  0.00    +0.000 S 
ATOM      9  C   UNL     1      10.026   5.022   2.409  0.00  0.00    +0.000 A 
BRANCH   5  10
ATOM     10  C   UNL     1      11.055   5.602   0.201  0.00  0.00    +0.000 C 
ATOM     11  O   UNL     1      10.025   5.848  -0.420  0.00  0.00    +0.000 OA
BRANCH  10  12
ATOM     12  O   UNL     1      12.283   5.451  -0.375  0.00  0.00    +0.000 OA
BRANCH  12  14
ATOM     13  C   UNL     1      12.014   3.691  -1.973  0.00  0.00    +0.000 C 
ATOM     14  C   UNL     1      12.250   5.178  -1.780  0.00  0.00    +0.000 C 
ENDBRANCH  12  14
ENDBRANCH  10  12
ENDBRANCH   5  10
ENDBRANCH   1   9
BRANCH   2  15
ATOM     15  C   UNL     1       7.151   3.234   0.871  0.00  0.00    +0.000 C 
BRANCH  15  16
ATOM     16  C   UNL     1       6.722   3.180  -0.575  0.00  0.00    +0.000 A 
ATOM     17  C   UNL     1       6.872   2.006  -1.322  0.00  0.00    +0.000 A 
ATOM     18  C   UNL     1       6.394   1.931  -2.632  0.00  0.00    +0.000 A 
ATOM     19  C   UNL     1       5.749   3.027  -3.223  0.00  0.00    +0.000 A 
ATOM     20  C   UNL     1       5.678   4.228  -2.501  0.00  0.00    +0.000 A 
ATOM     21  C   UNL     1       6.164   4.304  -1.193  0.00  0.00    +0.000 A 
BRANCH  19  22
ATOM     22  C   UNL     1       5.143   2.919  -4.596  0.00  0.00    +0.000 C 
BRANCH  22  23
ATOM     23  N   UNL     1       3.711   2.416  -4.672  0.00  0.00    +0.000 N 
ATOM     24  C   UNL     1       2.684   3.244  -3.949  0.00  0.00    +0.000 C 
ATOM     25  C   UNL     1       2.454   2.514  -2.645  0.00  0.00    +0.000 C 
ATOM     26  C   UNL     1       2.627   1.048  -2.989  0.00  0.00    +0.000 C 
ATOM     27  C   UNL     1       3.494   0.987  -4.236  0.00  0.00    +0.000 C 
ATOM     28  H   UNL     1       3.480   2.462  -5.672  0.00  0.00    +0.000 HD
ENDBRANCH  22  23
ENDBRANCH  19  22
ENDBRANCH  15  16
ENDBRANCH   2  15
TORSDOF 8
