MODEL 1
REMARK minimizedAffinity -8.7199049
REMARK minimizedRMSD -1
REMARK  Name = 
REMARK  9 active torsions:
REMARK  status: ('A' for Active; 'I' for Inactive)
REMARK    1  A    between atoms: C_1  and  C_2
REMARK    2  A    between atoms: C_2  and  O_3
REMARK    3  A    between atoms: O_3  and  C_4
REMARK    4  A    between atoms: C_4  and  C_6
REMARK    5  A    between atoms: C_10  and  N_11
REMARK    6  A    between atoms: C_12  and  C_14
REMARK    7  A    between atoms: C_14  and  C_15
REMARK    8  A    between atoms: C_18  and  C_19
REMARK    9  A    between atoms: C_19  and  N_20
REMARK                            x       y       z     vdW  Elec       q    Type
REMARK                         _______ _______ _______ _____ _____    ______ ____
ROOT
ATOM      1  N   UNL     1      22.482  -6.643  36.280  0.00  0.00    +0.000 N 
ATOM      2  C   UNL     1      22.199  -5.728  37.289  0.00  0.00    +0.000 C 
ATOM      3  O   UNL     1      21.800  -4.578  37.115  0.00  0.00    +0.000 OA
ATOM      4  H   UNL     1      22.283  -7.618  36.461  0.00  0.00    +0.000 HD
ENDROOT
BRANCH   1   9
ATOM      5  C   UNL     1      21.407  -6.207  34.035  0.00  0.00    +0.000 A 
ATOM      6  C   UNL     1      21.941  -5.910  32.730  0.00  0.00    +0.000 A 
ATOM      7  C   UNL     1      23.299  -5.674  32.755  0.00  0.00    +0.000 A 
ATOM      8  S   UNL     1      23.926  -5.747  34.343  0.00  0.00    +0.000 S 
ATOM      9  C   UNL     1      22.425  -6.254  34.959  0.00  0.00    +0.000 A 
BRANCH   5  10
ATOM     10  C   UNL     1      19.999  -6.420  34.362  0.00  0.00    +0.000 C 
ATOM     11  O   UNL     1      19.563  -6.451  35.509  0.00  0.00    +0.000 OA
BRANCH  10  12
ATOM     12  O   UNL     1      19.237  -6.601  33.244  0.00  0.00    +0.000 OA
BRANCH  12  14
ATOM     13  C   UNL     1      17.402  -5.970  31.845  0.00  0.00    +0.000 C 
ATOM     14  C   UNL     1      18.323  -5.534  32.970  0.00  0.00    +0.000 C 
ENDBRANCH  12  14
ENDBRANCH  10  12
ENDBRANCH   5  10
ENDBRANCH   1   9
BRANCH   2  15
ATOM     15  C   UNL     1      22.311  -6.335  38.675  0.00  0.00    +0.000 C 
BRANCH  15  16
ATOM     16  C   UNL     1      23.700  -6.282  39.264  0.00  0.00    +0.000 A 
ATOM     17  C   UNL     1      24.486  -5.131  39.139  0.00  0.00    +0.000 A 
ATOM     18  C   UNL     1      25.735  -5.052  39.759  0.00  0.00    +0.000 A 
ATOM     19  C   UNL     1      26.223  -6.121  40.525  0.00  0.00    +0.000 A 
ATOM     20  C   UNL     1      25.470  -7.303  40.576  0.00  0.00    +0.000 A 
ATOM     21  C   UNL     1      24.224  -7.384  39.948  0.00  0.00    +0.000 A 
BRANCH  19  22
ATOM     22  C   UNL     1      27.521  -6.003  41.278  0.00  0.00    +0.000 C 
BRANCH  22  23
ATOM     23  N   UNL     1      27.446  -5.416  42.678  0.00  0.00    +0.000 N 
ATOM     24  C   UNL     1      27.646  -3.928  42.779  0.00  0.00    +0.000 C 
ATOM     25  C   UNL     1      29.085  -3.765  43.214  0.00  0.00    +0.000 C 
ATOM     26  C   UNL     1      29.357  -4.964  44.099  0.00  0.00    +0.000 C 
ATOM     27  C   UNL     1      28.363  -6.042  43.701  0.00  0.00    +0.000 C 
ATOM     28  H   UNL     1      26.483  -5.608  42.981  0.00  0.00    +0.000 HD
ENDBRANCH  22  23
ENDBRANCH  19  22
ENDBRANCH  15  16
ENDBRANCH   2  15
TORSDOF 8
ENDMDL
MODEL 2
REMARK minimizedAffinity -8.21573067
REMARK minimizedRMSD -1
REMARK  Name = 
REMARK  9 active torsions:
REMARK  status: ('A' for Active; 'I' for Inactive)
REMARK    1  A    between atoms: C_1  and  C_2
REMARK    2  A    between atoms: C_2  and  O_3
REMARK    3  A    between atoms: O_3  and  C_4
REMARK    4  A    between atoms: C_4  and  C_6
REMARK    5  A    between atoms: C_10  and  N_11
REMARK    6  A    between atoms: C_12  and  C_14
REMARK    7  A    between atoms: C_14  and  C_15
REMARK    8  A    between atoms: C_18  and  C_19
REMARK    9  A    between atoms: C_19  and  N_20
REMARK                            x       y       z     vdW  Elec       q    Type
REMARK                         _______ _______ _______ _____ _____    ______ ____
ROOT
ATOM      1  N   UNL     1      28.047  -5.840  41.535  0.00  0.00    +0.000 N 
ATOM      2  C   UNL     1      28.078  -5.431  42.864  0.00  0.00    +0.000 C 
ATOM      3  O   UNL     1      27.137  -5.497  43.652  0.00  0.00    +0.000 OA
ATOM      4  H   UNL     1      28.891  -6.241  41.147  0.00  0.00    +0.000 HD
ENDROOT
BRANCH   1   9
ATOM      5  C   UNL     1      26.256  -7.502  40.889  0.00  0.00    +0.000 A 
ATOM      6  C   UNL     1      25.118  -7.428  40.007  0.00  0.00    +0.000 A 
ATOM      7  C   UNL     1      24.887  -6.150  39.546  0.00  0.00    +0.000 A 
ATOM      8  S   UNL     1      25.991  -5.027  40.212  0.00  0.00    +0.000 S 
ATOM      9  C   UNL     1      26.865  -6.271  40.973  0.00  0.00    +0.000 A 
BRANCH   5  10
ATOM     10  C   UNL     1      26.713  -8.688  41.608  0.00  0.00    +0.000 C 
ATOM     11  O   UNL     1      26.984  -9.754  41.063  0.00  0.00    +0.000 OA
BRANCH  10  12
ATOM     12  O   UNL     1      26.783  -8.473  42.954  0.00  0.00    +0.000 OA
BRANCH  12  14
ATOM     13  C   UNL     1      27.877  -8.717  45.068  0.00  0.00    +0.000 C 
ATOM     14  C   UNL     1      27.955  -9.008  43.580  0.00  0.00    +0.000 C 
ENDBRANCH  12  14
ENDBRANCH  10  12
ENDBRANCH   5  10
ENDBRANCH   1   9
BRANCH   2  15
ATOM     15  C   UNL     1      29.463  -4.993  43.306  0.00  0.00    +0.000 C 
BRANCH  15  16
ATOM     16  C   UNL     1      29.540  -4.537  44.743  0.00  0.00    +0.000 A 
ATOM     17  C   UNL     1      29.946  -5.417  45.752  0.00  0.00    +0.000 A 
ATOM     18  C   UNL     1      30.101  -4.970  47.066  0.00  0.00    +0.000 A 
ATOM     19  C   UNL     1      29.859  -3.630  47.399  0.00  0.00    +0.000 A 
ATOM     20  C   UNL     1      29.370  -2.772  46.402  0.00  0.00    +0.000 A 
ATOM     21  C   UNL     1      29.208  -3.223  45.090  0.00  0.00    +0.000 A 
BRANCH  19  22
ATOM     22  C   UNL     1      30.122  -3.120  48.790  0.00  0.00    +0.000 C 
BRANCH  22  23
ATOM     23  N   UNL     1      29.669  -1.702  49.094  0.00  0.00    +0.000 N 
ATOM     24  C   UNL     1      30.701  -0.625  48.895  0.00  0.00    +0.000 C 
ATOM     25  C   UNL     1      31.223  -0.334  50.284  0.00  0.00    +0.000 C 
ATOM     26  C   UNL     1      30.031  -0.547  51.195  0.00  0.00    +0.000 C 
ATOM     27  C   UNL     1      29.079  -1.481  50.466  0.00  0.00    +0.000 C 
ATOM     28  H   UNL     1      28.919  -1.525  48.414  0.00  0.00    +0.000 HD
ENDBRANCH  22  23
ENDBRANCH  19  22
ENDBRANCH  15  16
ENDBRANCH   2  15
TORSDOF 8
ENDMDL
MODEL 3
REMARK minimizedAffinity -8.13576698
REMARK minimizedRMSD -1
REMARK  Name = 
REMARK  9 active torsions:
REMARK  status: ('A' for Active; 'I' for Inactive)
REMARK    1  A    between atoms: C_1  and  C_2
REMARK    2  A    between atoms: C_2  and  O_3
REMARK    3  A    between atoms: O_3  and  C_4
REMARK    4  A    between atoms: C_4  and  C_6
REMARK    5  A    between atoms: C_10  and  N_11
REMARK    6  A    between atoms: C_12  and  C_14
REMARK    7  A    between atoms: C_14  and  C_15
REMARK    8  A    between atoms: C_18  and  C_19
REMARK    9  A    between atoms: C_19  and  N_20
REMARK                            x       y       z     vdW  Elec       q    Type
REMARK                         _______ _______ _______ _____ _____    ______ ____
ROOT
ATOM      1  N   UNL     1      23.063  -6.570  36.008  0.00  0.00    +0.000 N 
ATOM      2  C   UNL     1      22.138  -5.912  36.811  0.00  0.00    +0.000 C 
ATOM      3  O   UNL     1      21.296  -5.108  36.415  0.00  0.00    +0.000 OA
ATOM      4  H   UNL     1      23.315  -7.517  36.261  0.00  0.00    +0.000 HD
ENDROOT
BRANCH   1   9
ATOM      5  C   UNL     1      23.806  -5.270  33.972  0.00  0.00    +0.000 A 
ATOM      6  C   UNL     1      23.399  -5.291  32.589  0.00  0.00    +0.000 A 
ATOM      7  C   UNL     1      22.539  -6.330  32.306  0.00  0.00    +0.000 A 
ATOM      8  S   UNL     1      22.265  -7.317  33.675  0.00  0.00    +0.000 S 
ATOM      9  C   UNL     1      23.155  -6.263  34.668  0.00  0.00    +0.000 A 
BRANCH   5  10
ATOM     10  C   UNL     1      24.772  -4.353  34.572  0.00  0.00    +0.000 C 
ATOM     11  O   UNL     1      24.700  -3.951  35.730  0.00  0.00    +0.000 OA
BRANCH  10  12
ATOM     12  O   UNL     1      25.745  -3.986  33.689  0.00  0.00    +0.000 OA
BRANCH  12  14
ATOM     13  C   UNL     1      27.074  -2.231  32.751  0.00  0.00    +0.000 C 
ATOM     14  C   UNL     1      25.714  -2.605  33.312  0.00  0.00    +0.000 C 
ENDBRANCH  12  14
ENDBRANCH  10  12
ENDBRANCH   5  10
ENDBRANCH   1   9
BRANCH   2  15
ATOM     15  C   UNL     1      22.181  -6.382  38.254  0.00  0.00    +0.000 C 
BRANCH  15  16
ATOM     16  C   UNL     1      23.537  -6.261  38.905  0.00  0.00    +0.000 A 
ATOM     17  C   UNL     1      24.261  -5.065  38.834  0.00  0.00    +0.000 A 
ATOM     18  C   UNL     1      25.475  -4.928  39.511  0.00  0.00    +0.000 A 
ATOM     19  C   UNL     1      25.989  -5.981  40.280  0.00  0.00    +0.000 A 
ATOM     20  C   UNL     1      25.304  -7.205  40.279  0.00  0.00    +0.000 A 
ATOM     21  C   UNL     1      24.093  -7.344  39.594  0.00  0.00    +0.000 A 
BRANCH  19  22
ATOM     22  C   UNL     1      27.244  -5.804  41.092  0.00  0.00    +0.000 C 
BRANCH  22  23
ATOM     23  N   UNL     1      27.096  -5.100  42.431  0.00  0.00    +0.000 N 
ATOM     24  C   UNL     1      27.343  -3.617  42.425  0.00  0.00    +0.000 C 
ATOM     25  C   UNL     1      28.754  -3.463  42.946  0.00  0.00    +0.000 C 
ATOM     26  C   UNL     1      28.922  -4.592  43.943  0.00  0.00    +0.000 C 
ATOM     27  C   UNL     1      27.917  -5.668  43.564  0.00  0.00    +0.000 C 
ATOM     28  H   UNL     1      26.109  -5.237  42.680  0.00  0.00    +0.000 HD
ENDBRANCH  22  23
ENDBRANCH  19  22
ENDBRANCH  15  16
ENDBRANCH   2  15
TORSDOF 8
ENDMDL
MODEL 4
REMARK minimizedAffinity -8.10716915
REMARK minimizedRMSD -1
REMARK  Name = 
REMARK  9 active torsions:
REMARK  status: ('A' for Active; 'I' for Inactive)
REMARK    1  A    between atoms: C_1  and  C_2
REMARK    2  A    between atoms: C_2  and  O_3
REMARK    3  A    between atoms: O_3  and  C_4
REMARK    4  A    between atoms: C_4  and  C_6
REMARK    5  A    between atoms: C_10  and  N_11
REMARK    6  A    between atoms: C_12  and  C_14
REMARK    7  A    between atoms: C_14  and  C_15
REMARK    8  A    between atoms: C_18  and  C_19
REMARK    9  A    between atoms: C_19  and  N_20
REMARK                            x       y       z     vdW  Elec       q    Type
REMARK                         _______ _______ _______ _____ _____    ______ ____
ROOT
ATOM      1  N   UNL     1      26.561  -5.920  40.170  0.00  0.00    +0.000 N 
ATOM      2  C   UNL     1      26.912  -5.018  41.169  0.00  0.00    +0.000 C 
ATOM      3  O   UNL     1      26.123  -4.338  41.823  0.00  0.00    +0.000 OA
ATOM      4  H   UNL     1      27.122  -6.756  40.074  0.00  0.00    +0.000 HD
ENDROOT
BRANCH   1   9
ATOM      5  C   UNL     1      24.336  -7.061  39.799  0.00  0.00    +0.000 A 
ATOM      6  C   UNL     1      23.155  -6.695  39.060  0.00  0.00    +0.000 A 
ATOM      7  C   UNL     1      23.204  -5.400  38.590  0.00  0.00    +0.000 A 
ATOM      8  S   UNL     1      24.634  -4.601  39.081  0.00  0.00    +0.000 S 
ATOM      9  C   UNL     1      25.247  -6.029  39.769  0.00  0.00    +0.000 A 
BRANCH   5  10
ATOM     10  C   UNL     1      24.560  -8.325  40.495  0.00  0.00    +0.000 C 
ATOM     11  O   UNL     1      23.880  -9.331  40.317  0.00  0.00    +0.000 OA
BRANCH  10  12
ATOM     12  O   UNL     1      25.600  -8.246  41.376  0.00  0.00    +0.000 OA
BRANCH  12  14
ATOM     13  C   UNL     1      27.700  -9.015  42.226  0.00  0.00    +0.000 C 
ATOM     14  C   UNL     1      26.620  -9.231  41.181  0.00  0.00    +0.000 C 
ENDBRANCH  12  14
ENDBRANCH  10  12
ENDBRANCH   5  10
ENDBRANCH   1   9
BRANCH   2  15
ATOM     15  C   UNL     1      28.399  -5.038  41.476  0.00  0.00    +0.000 C 
BRANCH  15  16
ATOM     16  C   UNL     1      28.732  -4.868  42.938  0.00  0.00    +0.000 A 
ATOM     17  C   UNL     1      28.995  -3.600  43.469  0.00  0.00    +0.000 A 
ATOM     18  C   UNL     1      29.215  -3.435  44.838  0.00  0.00    +0.000 A 
ATOM     19  C   UNL     1      29.172  -4.533  45.709  0.00  0.00    +0.000 A 
ATOM     20  C   UNL     1      28.994  -5.812  45.160  0.00  0.00    +0.000 A 
ATOM     21  C   UNL     1      28.781  -5.977  43.789  0.00  0.00    +0.000 A 
BRANCH  19  22
ATOM     22  C   UNL     1      29.309  -4.347  47.196  0.00  0.00    +0.000 C 
BRANCH  22  23
ATOM     23  N   UNL     1      28.912  -2.990  47.753  0.00  0.00    +0.000 N 
ATOM     24  C   UNL     1      29.921  -1.888  47.581  0.00  0.00    +0.000 C 
ATOM     25  C   UNL     1      30.616  -1.794  48.921  0.00  0.00    +0.000 C 
ATOM     26  C   UNL     1      29.545  -2.144  49.935  0.00  0.00    +0.000 C 
ATOM     27  C   UNL     1      28.500  -2.972  49.205  0.00  0.00    +0.000 C 
ATOM     28  H   UNL     1      28.085  -2.724  47.204  0.00  0.00    +0.000 HD
ENDBRANCH  22  23
ENDBRANCH  19  22
ENDBRANCH  15  16
ENDBRANCH   2  15
TORSDOF 8
ENDMDL
MODEL 5
REMARK minimizedAffinity -8.09501934
REMARK minimizedRMSD -1
REMARK  Name = 
REMARK  9 active torsions:
REMARK  status: ('A' for Active; 'I' for Inactive)
REMARK    1  A    between atoms: C_1  and  C_2
REMARK    2  A    between atoms: C_2  and  O_3
REMARK    3  A    between atoms: O_3  and  C_4
REMARK    4  A    between atoms: C_4  and  C_6
REMARK    5  A    between atoms: C_10  and  N_11
REMARK    6  A    between atoms: C_12  and  C_14
REMARK    7  A    between atoms: C_14  and  C_15
REMARK    8  A    between atoms: C_18  and  C_19
REMARK    9  A    between atoms: C_19  and  N_20
REMARK                            x       y       z     vdW  Elec       q    Type
REMARK                         _______ _______ _______ _____ _____    ______ ____
ROOT
ATOM      1  N   UNL     1      26.992  -6.305  42.972  0.00  0.00    +0.000 N 
ATOM      2  C   UNL     1      27.857  -5.274  42.619  0.00  0.00    +0.000 C 
ATOM      3  O   UNL     1      28.500  -5.210  41.573  0.00  0.00    +0.000 OA
ATOM      4  H   UNL     1      26.167  -6.064  43.506  0.00  0.00    +0.000 HD
ENDROOT
BRANCH   1   9
ATOM      5  C   UNL     1      26.077  -7.729  41.094  0.00  0.00    +0.000 A 
ATOM      6  C   UNL     1      26.234  -9.119  40.749  0.00  0.00    +0.000 A 
ATOM      7  C   UNL     1      27.190  -9.750  41.515  0.00  0.00    +0.000 A 
ATOM      8  S   UNL     1      27.944  -8.670  42.605  0.00  0.00    +0.000 S 
ATOM      9  C   UNL     1      26.881  -7.418  42.167  0.00  0.00    +0.000 A 
BRANCH   5  10
ATOM     10  C   UNL     1      25.211  -6.765  40.419  0.00  0.00    +0.000 C 
ATOM     11  O   UNL     1      25.481  -5.573  40.300  0.00  0.00    +0.000 OA
BRANCH  10  12
ATOM     12  O   UNL     1      24.065  -7.344  39.959  0.00  0.00    +0.000 OA
BRANCH  12  14
ATOM     13  C   UNL     1      23.187  -6.386  37.950  0.00  0.00    +0.000 C 
ATOM     14  C   UNL     1      23.090  -6.420  39.465  0.00  0.00    +0.000 C 
ENDBRANCH  12  14
ENDBRANCH  10  12
ENDBRANCH   5  10
ENDBRANCH   1   9
BRANCH   2  15
ATOM     15  C   UNL     1      27.844  -4.134  43.622  0.00  0.00    +0.000 C 
BRANCH  15  16
ATOM     16  C   UNL     1      28.866  -4.268  44.725  0.00  0.00    +0.000 A 
ATOM     17  C   UNL     1      29.375  -3.134  45.369  0.00  0.00    +0.000 A 
ATOM     18  C   UNL     1      30.252  -3.264  46.448  0.00  0.00    +0.000 A 
ATOM     19  C   UNL     1      30.635  -4.531  46.912  0.00  0.00    +0.000 A 
ATOM     20  C   UNL     1      30.191  -5.661  46.209  0.00  0.00    +0.000 A 
ATOM     21  C   UNL     1      29.319  -5.529  45.124  0.00  0.00    +0.000 A 
BRANCH  19  22
ATOM     22  C   UNL     1      31.499  -4.678  48.135  0.00  0.00    +0.000 C 
BRANCH  22  23
ATOM     23  N   UNL     1      32.884  -5.268  47.926  0.00  0.00    +0.000 N 
ATOM     24  C   UNL     1      33.653  -5.598  49.176  0.00  0.00    +0.000 C 
ATOM     25  C   UNL     1      34.606  -4.437  49.355  0.00  0.00    +0.000 C 
ATOM     26  C   UNL     1      34.952  -4.002  47.945  0.00  0.00    +0.000 C 
ATOM     27  C   UNL     1      33.813  -4.464  47.049  0.00  0.00    +0.000 C 
ATOM     28  H   UNL     1      32.709  -6.156  47.441  0.00  0.00    +0.000 HD
ENDBRANCH  22  23
ENDBRANCH  19  22
ENDBRANCH  15  16
ENDBRANCH   2  15
TORSDOF 8
ENDMDL
