REMARK  Name = 
REMARK  11 active torsions:
REMARK  status: ('A' for Active; 'I' for Inactive)
REMARK    1  A    between atoms: C_1  and  C_2
REMARK    2  A    between atoms: C_2  and  O_3
REMARK    3  A    between atoms: O_3  and  C_4
REMARK    4  A    between atoms: C_4  and  C_6
REMARK    5  A    between atoms: C_10  and  N_11
REMARK    6  A    between atoms: C_12  and  C_14
REMARK    7  A    between atoms: C_14  and  C_15
REMARK    8  A    between atoms: C_18  and  O_19
REMARK    9  A    between atoms: O_19  and  C_20
REMARK   10  A    between atoms: C_20  and  C_21
REMARK   11  A    between atoms: C_21  and  N_22
REMARK                            x       y       z     vdW  Elec       q    Type
REMARK                         _______ _______ _______ _____ _____    ______ ____
ROOT
ATOM      1  C   UNL     1       7.062   2.674   1.570  0.00  0.00    +0.000 C 
ENDROOT
BRANCH   1   2
ATOM      2  C   UNL     1       6.661   3.098   0.177  0.00  0.00    +0.000 A 
ATOM      3  C   UNL     1       6.183   2.159  -0.740  0.00  0.00    +0.000 A 
ATOM      4  C   UNL     1       5.816   2.538  -2.035  0.00  0.00    +0.000 A 
ATOM      5  C   UNL     1       5.913   3.872  -2.437  0.00  0.00    +0.000 A 
ATOM      6  C   UNL     1       6.426   4.813  -1.539  0.00  0.00    +0.000 A 
ATOM      7  C   UNL     1       6.795   4.429  -0.242  0.00  0.00    +0.000 A 
BRANCH   5   8
ATOM      8  O   UNL     1       5.584   4.330  -3.693  0.00  0.00    +0.000 OA
BRANCH   8   9
ATOM      9  C   UNL     1       4.454   3.665  -4.269  0.00  0.00    +0.000 C 
BRANCH   9  10
ATOM     10  C   UNL     1       4.143   4.243  -5.657  0.00  0.00    +0.000 C 
BRANCH  10  11
ATOM     11  N   UNL     1       5.340   4.215  -6.597  0.00  0.00    +0.000 N 
ATOM     12  C   UNL     1       5.020   4.780  -7.965  0.00  0.00    +0.000 C 
ATOM     13  C   UNL     1       4.641   3.556  -8.770  0.00  0.00    +0.000 C 
ATOM     14  C   UNL     1       5.604   2.485  -8.288  0.00  0.00    +0.000 C 
ATOM     15  C   UNL     1       5.963   2.858  -6.856  0.00  0.00    +0.000 C 
ATOM     16  H   UNL     1       6.053   4.809  -6.144  0.00  0.00    +0.000 HD
ENDBRANCH  10  11
ENDBRANCH   9  10
ENDBRANCH   8   9
ENDBRANCH   5   8
ENDBRANCH   1   2
BRANCH   1  18
ATOM     17  N   UNL     1       9.158   2.846   2.776  0.00  0.00    +0.000 N 
ATOM     18  C   UNL     1       8.525   2.274   1.680  0.00  0.00    +0.000 C 
ATOM     19  O   UNL     1       9.034   1.455   0.917  0.00  0.00    +0.000 OA
ATOM     20  H   UNL     1       8.594   3.051   3.590  0.00  0.00    +0.000 HD
BRANCH  17  25
ATOM     21  C   UNL     1      11.605   2.553   2.195  0.00  0.00    +0.000 A 
ATOM     22  C   UNL     1      12.743   2.086   2.949  0.00  0.00    +0.000 A 
ATOM     23  C   UNL     1      12.454   1.890   4.282  0.00  0.00    +0.000 A 
ATOM     24  S   UNL     1      10.842   2.317   4.650  0.00  0.00    +0.000 S 
ATOM     25  C   UNL     1      10.495   2.610   3.011  0.00  0.00    +0.000 A 
BRANCH  21  26
ATOM     26  C   UNL     1      11.612   2.925   0.785  0.00  0.00    +0.000 C 
ATOM     27  O   UNL     1      10.803   3.690   0.272  0.00  0.00    +0.000 OA
BRANCH  26  28
ATOM     28  O   UNL     1      12.624   2.308   0.105  0.00  0.00    +0.000 OA
BRANCH  28  30
ATOM     29  C   UNL     1      11.559   1.056  -1.631  0.00  0.00    +0.000 C 
ATOM     30  C   UNL     1      12.443   2.249  -1.315  0.00  0.00    +0.000 C 
ENDBRANCH  28  30
ENDBRANCH  26  28
ENDBRANCH  21  26
ENDBRANCH  17  25
ENDBRANCH   1  18
TORSDOF 10
