REMARK  Name = 
REMARK  11 active torsions:
REMARK  status: ('A' for Active; 'I' for Inactive)
REMARK    1  A    between atoms: C_1  and  C_2
REMARK    2  A    between atoms: C_2  and  O_3
REMARK    3  A    between atoms: O_3  and  C_4
REMARK    4  A    between atoms: C_4  and  C_6
REMARK    5  A    between atoms: C_10  and  N_11
REMARK    6  A    between atoms: C_12  and  C_14
REMARK    7  A    between atoms: C_14  and  C_15
REMARK    8  A    between atoms: C_18  and  O_19
REMARK    9  A    between atoms: O_19  and  C_20
REMARK   10  A    between atoms: C_20  and  C_21
REMARK   11  A    between atoms: C_21  and  N_22
REMARK                            x       y       z     vdW  Elec       q    Type
REMARK                         _______ _______ _______ _____ _____    ______ ____
ROOT
ATOM      1  C   UNL     1       6.602  -2.719   0.988  0.00  0.00    +0.000 A 
ATOM      2  C   UNL     1       6.359  -3.930   1.645  0.00  0.00    +0.000 A 
ATOM      3  C   UNL     1       5.947  -3.948   2.980  0.00  0.00    +0.000 A 
ATOM      4  C   UNL     1       5.769  -2.755   3.685  0.00  0.00    +0.000 A 
ATOM      5  C   UNL     1       5.990  -1.543   3.029  0.00  0.00    +0.000 A 
ATOM      6  C   UNL     1       6.406  -1.524   1.692  0.00  0.00    +0.000 A 
ENDROOT
BRANCH   4   7
ATOM      7  O   UNL     1       5.326  -2.684   4.987  0.00  0.00    +0.000 OA
BRANCH   7   8
ATOM      8  C   UNL     1       5.742  -3.779   5.810  0.00  0.00    +0.000 C 
BRANCH   8   9
ATOM      9  C   UNL     1       5.225  -3.583   7.241  0.00  0.00    +0.000 C 
BRANCH   9  10
ATOM     10  N   UNL     1       3.709  -3.475   7.307  0.00  0.00    +0.000 N 
ATOM     11  C   UNL     1       2.975  -4.702   6.770  0.00  0.00    +0.000 C 
ATOM     12  C   UNL     1       1.462  -4.536   6.948  0.00  0.00    +0.000 C 
ATOM     13  O   UNL     1       1.129  -4.305   8.319  0.00  0.00    +0.000 OA
ATOM     14  C   UNL     1       1.722  -3.095   8.801  0.00  0.00    +0.000 C 
ATOM     15  C   UNL     1       3.250  -3.172   8.733  0.00  0.00    +0.000 C 
ATOM     16  H   UNL     1       3.452  -2.676   6.704  0.00  0.00    +0.000 HD
ENDBRANCH   9  10
ENDBRANCH   8   9
ENDBRANCH   7   8
ENDBRANCH   4   7
BRANCH   1  17
ATOM     17  C   UNL     1       7.006  -2.707  -0.466  0.00  0.00    +0.000 C 
BRANCH  17  19
ATOM     18  N   UNL     1       5.913  -1.553  -2.303  0.00  0.00    +0.000 N 
ATOM     19  C   UNL     1       5.810  -2.608  -1.405  0.00  0.00    +0.000 C 
ATOM     20  O   UNL     1       4.901  -3.434  -1.382  0.00  0.00    +0.000 OA
ATOM     21  H   UNL     1       6.846  -1.290  -2.597  0.00  0.00    +0.000 HD
BRANCH  18  26
ATOM     22  C   UNL     1       3.540  -1.252  -3.118  0.00  0.00    +0.000 A 
ATOM     23  C   UNL     1       2.942  -1.216  -4.428  0.00  0.00    +0.000 A 
ATOM     24  C   UNL     1       3.878  -1.223  -5.439  0.00  0.00    +0.000 A 
ATOM     25  S   UNL     1       5.476  -1.219  -4.828  0.00  0.00    +0.000 S 
ATOM     26  C   UNL     1       4.912  -1.352  -3.230  0.00  0.00    +0.000 A 
BRANCH  22  27
ATOM     27  C   UNL     1       2.841  -1.187  -1.841  0.00  0.00    +0.000 C 
ATOM     28  O   UNL     1       3.354  -0.784  -0.803  0.00  0.00    +0.000 OA
BRANCH  27  29
ATOM     29  O   UNL     1       1.564  -1.661  -1.932  0.00  0.00    +0.000 OA
BRANCH  29  31
ATOM     30  C   UNL     1       1.536  -3.541  -0.466  0.00  0.00    +0.000 C 
ATOM     31  C   UNL     1       1.030  -2.129  -0.688  0.00  0.00    +0.000 C 
ENDBRANCH  29  31
ENDBRANCH  27  29
ENDBRANCH  22  27
ENDBRANCH  18  26
ENDBRANCH  17  19
ENDBRANCH   1  17
TORSDOF 10
