MODEL 1
REMARK minimizedAffinity -8.82481384
REMARK minimizedRMSD -1
REMARK  Name = 
REMARK  11 active torsions:
REMARK  status: ('A' for Active; 'I' for Inactive)
REMARK    1  A    between atoms: C_1  and  C_2
REMARK    2  A    between atoms: C_2  and  O_3
REMARK    3  A    between atoms: O_3  and  C_4
REMARK    4  A    between atoms: C_4  and  C_6
REMARK    5  A    between atoms: C_10  and  N_11
REMARK    6  A    between atoms: C_12  and  C_14
REMARK    7  A    between atoms: C_14  and  C_15
REMARK    8  A    between atoms: C_18  and  O_19
REMARK    9  A    between atoms: O_19  and  C_20
REMARK   10  A    between atoms: C_20  and  C_21
REMARK   11  A    between atoms: C_21  and  N_22
REMARK                            x       y       z     vdW  Elec       q    Type
REMARK                         _______ _______ _______ _____ _____    ______ ____
ROOT
ATOM      1  C   UNL     1      25.536  -5.651  39.649  0.00  0.00    +0.000 A 
ATOM      2  C   UNL     1      24.853  -6.817  40.013  0.00  0.00    +0.000 A 
ATOM      3  C   UNL     1      23.507  -6.989  39.681  0.00  0.00    +0.000 A 
ATOM      4  C   UNL     1      22.817  -5.999  38.977  0.00  0.00    +0.000 A 
ATOM      5  C   UNL     1      23.498  -4.843  38.593  0.00  0.00    +0.000 A 
ATOM      6  C   UNL     1      24.847  -4.668  38.928  0.00  0.00    +0.000 A 
ENDROOT
BRANCH   4   7
ATOM      7  O   UNL     1      21.504  -6.108  38.575  0.00  0.00    +0.000 OA
BRANCH   7   8
ATOM      8  C   UNL     1      21.159  -5.277  37.461  0.00  0.00    +0.000 C 
BRANCH   8   9
ATOM      9  C   UNL     1      20.447  -6.110  36.389  0.00  0.00    +0.000 C 
BRANCH   9  10
ATOM     10  N   UNL     1      21.114  -6.005  35.025  0.00  0.00    +0.000 N 
ATOM     11  C   UNL     1      22.586  -6.413  35.021  0.00  0.00    +0.000 C 
ATOM     12  C   UNL     1      23.150  -6.350  33.598  0.00  0.00    +0.000 C 
ATOM     13  O   UNL     1      22.393  -7.174  32.709  0.00  0.00    +0.000 OA
ATOM     14  C   UNL     1      21.035  -6.731  32.619  0.00  0.00    +0.000 C 
ATOM     15  C   UNL     1      20.343  -6.814  33.982  0.00  0.00    +0.000 C 
ATOM     16  H   UNL     1      21.072  -5.007  34.762  0.00  0.00    +0.000 HD
ENDBRANCH   9  10
ENDBRANCH   8   9
ENDBRANCH   7   8
ENDBRANCH   4   7
BRANCH   1  17
ATOM     17  C   UNL     1      27.001  -5.492  39.975  0.00  0.00    +0.000 C 
BRANCH  17  19
ATOM     18  N   UNL     1      28.285  -5.944  41.987  0.00  0.00    +0.000 N 
ATOM     19  C   UNL     1      27.244  -5.197  41.450  0.00  0.00    +0.000 C 
ATOM     20  O   UNL     1      26.607  -4.334  42.049  0.00  0.00    +0.000 OA
ATOM     21  H   UNL     1      29.041  -6.193  41.361  0.00  0.00    +0.000 HD
BRANCH  18  26
ATOM     22  C   UNL     1      28.435  -6.536  44.439  0.00  0.00    +0.000 A 
ATOM     23  C   UNL     1      28.850  -5.804  45.609  0.00  0.00    +0.000 A 
ATOM     24  C   UNL     1      29.390  -4.574  45.302  0.00  0.00    +0.000 A 
ATOM     25  S   UNL     1      29.454  -4.310  43.613  0.00  0.00    +0.000 S 
ATOM     26  C   UNL     1      28.634  -5.768  43.309  0.00  0.00    +0.000 A 
BRANCH  22  27
ATOM     27  C   UNL     1      27.891  -7.887  44.406  0.00  0.00    +0.000 C 
ATOM     28  O   UNL     1      27.171  -8.310  43.509  0.00  0.00    +0.000 OA
BRANCH  27  29
ATOM     29  O   UNL     1      28.249  -8.609  45.508  0.00  0.00    +0.000 OA
BRANCH  29  31
ATOM     30  C   UNL     1      28.004 -10.873  46.216  0.00  0.00    +0.000 C 
ATOM     31  C   UNL     1      28.665  -9.948  45.213  0.00  0.00    +0.000 C 
ENDBRANCH  29  31
ENDBRANCH  27  29
ENDBRANCH  22  27
ENDBRANCH  18  26
ENDBRANCH  17  19
ENDBRANCH   1  17
TORSDOF 10
ENDMDL
MODEL 2
REMARK minimizedAffinity -8.60119915
REMARK minimizedRMSD -1
REMARK  Name = 
REMARK  11 active torsions:
REMARK  status: ('A' for Active; 'I' for Inactive)
REMARK    1  A    between atoms: C_1  and  C_2
REMARK    2  A    between atoms: C_2  and  O_3
REMARK    3  A    between atoms: O_3  and  C_4
REMARK    4  A    between atoms: C_4  and  C_6
REMARK    5  A    between atoms: C_10  and  N_11
REMARK    6  A    between atoms: C_12  and  C_14
REMARK    7  A    between atoms: C_14  and  C_15
REMARK    8  A    between atoms: C_18  and  O_19
REMARK    9  A    between atoms: O_19  and  C_20
REMARK   10  A    between atoms: C_20  and  C_21
REMARK   11  A    between atoms: C_21  and  N_22
REMARK                            x       y       z     vdW  Elec       q    Type
REMARK                         _______ _______ _______ _____ _____    ______ ____
ROOT
ATOM      1  C   UNL     1      25.533  -7.066  40.427  0.00  0.00    +0.000 A 
ATOM      2  C   UNL     1      25.895  -5.795  39.968  0.00  0.00    +0.000 A 
ATOM      3  C   UNL     1      24.998  -5.020  39.229  0.00  0.00    +0.000 A 
ATOM      4  C   UNL     1      23.720  -5.500  38.933  0.00  0.00    +0.000 A 
ATOM      5  C   UNL     1      23.345  -6.759  39.405  0.00  0.00    +0.000 A 
ATOM      6  C   UNL     1      24.245  -7.538  40.143  0.00  0.00    +0.000 A 
ENDROOT
BRANCH   4   7
ATOM      7  O   UNL     1      22.764  -4.785  38.247  0.00  0.00    +0.000 OA
BRANCH   7   8
ATOM      8  C   UNL     1      21.988  -5.567  37.333  0.00  0.00    +0.000 C 
BRANCH   8   9
ATOM      9  C   UNL     1      22.847  -5.964  36.126  0.00  0.00    +0.000 C 
BRANCH   9  10
ATOM     10  N   UNL     1      22.031  -6.597  35.009  0.00  0.00    +0.000 N 
ATOM     11  C   UNL     1      20.557  -6.193  35.010  0.00  0.00    +0.000 C 
ATOM     12  C   UNL     1      19.835  -6.814  33.810  0.00  0.00    +0.000 C 
ATOM     13  O   UNL     1      20.463  -6.436  32.582  0.00  0.00    +0.000 OA
ATOM     14  C   UNL     1      21.813  -6.908  32.522  0.00  0.00    +0.000 C 
ATOM     15  C   UNL     1      22.655  -6.296  33.646  0.00  0.00    +0.000 C 
ATOM     16  H   UNL     1      22.069  -7.617  35.168  0.00  0.00    +0.000 HD
ENDBRANCH   9  10
ENDBRANCH   8   9
ENDBRANCH   7   8
ENDBRANCH   4   7
BRANCH   1  17
ATOM     17  C   UNL     1      26.492  -7.879  41.260  0.00  0.00    +0.000 C 
BRANCH  17  19
ATOM     18  N   UNL     1      27.075  -6.318  43.028  0.00  0.00    +0.000 N 
ATOM     19  C   UNL     1      27.558  -7.021  41.931  0.00  0.00    +0.000 C 
ATOM     20  O   UNL     1      28.726  -7.028  41.551  0.00  0.00    +0.000 OA
ATOM     21  H   UNL     1      26.327  -6.750  43.556  0.00  0.00    +0.000 HD
BRANCH  18  26
ATOM     22  C   UNL     1      28.703  -5.738  44.871  0.00  0.00    +0.000 A 
ATOM     23  C   UNL     1      29.287  -4.500  45.321  0.00  0.00    +0.000 A 
ATOM     24  C   UNL     1      28.987  -3.440  44.493  0.00  0.00    +0.000 A 
ATOM     25  S   UNL     1      28.051  -3.928  43.146  0.00  0.00    +0.000 S 
ATOM     26  C   UNL     1      27.933  -5.513  43.748  0.00  0.00    +0.000 A 
BRANCH  22  27
ATOM     27  C   UNL     1      28.880  -7.052  45.475  0.00  0.00    +0.000 C 
ATOM     28  O   UNL     1      29.863  -7.373  46.133  0.00  0.00    +0.000 OA
BRANCH  27  29
ATOM     29  O   UNL     1      27.840  -7.890  45.190  0.00  0.00    +0.000 OA
BRANCH  29  31
ATOM     30  C   UNL     1      28.413  -9.881  44.011  0.00  0.00    +0.000 C 
ATOM     31  C   UNL     1      28.147  -9.277  45.376  0.00  0.00    +0.000 C 
ENDBRANCH  29  31
ENDBRANCH  27  29
ENDBRANCH  22  27
ENDBRANCH  18  26
ENDBRANCH  17  19
ENDBRANCH   1  17
TORSDOF 10
ENDMDL
MODEL 3
REMARK minimizedAffinity -8.32091236
REMARK minimizedRMSD -1
REMARK  Name = 
REMARK  11 active torsions:
REMARK  status: ('A' for Active; 'I' for Inactive)
REMARK    1  A    between atoms: C_1  and  C_2
REMARK    2  A    between atoms: C_2  and  O_3
REMARK    3  A    between atoms: O_3  and  C_4
REMARK    4  A    between atoms: C_4  and  C_6
REMARK    5  A    between atoms: C_10  and  N_11
REMARK    6  A    between atoms: C_12  and  C_14
REMARK    7  A    between atoms: C_14  and  C_15
REMARK    8  A    between atoms: C_18  and  O_19
REMARK    9  A    between atoms: O_19  and  C_20
REMARK   10  A    between atoms: C_20  and  C_21
REMARK   11  A    between atoms: C_21  and  N_22
REMARK                            x       y       z     vdW  Elec       q    Type
REMARK                         _______ _______ _______ _____ _____    ______ ____
ROOT
ATOM      1  C   UNL     1      29.463  -4.481  44.515  0.00  0.00    +0.000 A 
ATOM      2  C   UNL     1      29.223  -3.204  45.034  0.00  0.00    +0.000 A 
ATOM      3  C   UNL     1      29.359  -2.953  46.402  0.00  0.00    +0.000 A 
ATOM      4  C   UNL     1      29.738  -3.973  47.278  0.00  0.00    +0.000 A 
ATOM      5  C   UNL     1      30.000  -5.243  46.763  0.00  0.00    +0.000 A 
ATOM      6  C   UNL     1      29.861  -5.497  45.393  0.00  0.00    +0.000 A 
ENDROOT
BRANCH   4   7
ATOM      7  O   UNL     1      29.935  -3.799  48.630  0.00  0.00    +0.000 OA
BRANCH   7   8
ATOM      8  C   UNL     1      29.449  -2.552  49.139  0.00  0.00    +0.000 C 
BRANCH   8   9
ATOM      9  C   UNL     1      30.626  -1.613  49.433  0.00  0.00    +0.000 C 
BRANCH   9  10
ATOM     10  N   UNL     1      30.203  -0.363  50.190  0.00  0.00    +0.000 N 
ATOM     11  C   UNL     1      29.003  -0.571  51.112  0.00  0.00    +0.000 C 
ATOM     12  C   UNL     1      28.700   0.716  51.887  0.00  0.00    +0.000 C 
ATOM     13  O   UNL     1      29.842   1.148  52.630  0.00  0.00    +0.000 OA
ATOM     14  C   UNL     1      30.940   1.454  51.765  0.00  0.00    +0.000 C 
ATOM     15  C   UNL     1      31.378   0.214  50.980  0.00  0.00    +0.000 C 
ATOM     16  H   UNL     1      29.922   0.326  49.472  0.00  0.00    +0.000 HD
ENDBRANCH   9  10
ENDBRANCH   8   9
ENDBRANCH   7   8
ENDBRANCH   4   7
BRANCH   1  17
ATOM     17  C   UNL     1      29.355  -4.734  43.031  0.00  0.00    +0.000 C 
BRANCH  17  19
ATOM     18  N   UNL     1      27.943  -5.793  41.361  0.00  0.00    +0.000 N 
ATOM     19  C   UNL     1      27.964  -5.195  42.616  0.00  0.00    +0.000 C 
ATOM     20  O   UNL     1      26.998  -5.091  43.368  0.00  0.00    +0.000 OA
ATOM     21  H   UNL     1      28.778  -6.291  41.077  0.00  0.00    +0.000 HD
BRANCH  18  26
ATOM     22  C   UNL     1      26.164  -7.526  40.899  0.00  0.00    +0.000 A 
ATOM     23  C   UNL     1      24.990  -7.539  40.065  0.00  0.00    +0.000 A 
ATOM     24  C   UNL     1      24.722  -6.309  39.506  0.00  0.00    +0.000 A 
ATOM     25  S   UNL     1      25.841  -5.120  40.017  0.00  0.00    +0.000 S 
ATOM     26  C   UNL     1      26.754  -6.279  40.862  0.00  0.00    +0.000 A 
BRANCH  22  27
ATOM     27  C   UNL     1      26.683  -8.637  41.687  0.00  0.00    +0.000 C 
ATOM     28  O   UNL     1      26.991  -9.724  41.213  0.00  0.00    +0.000 OA
BRANCH  27  29
ATOM     29  O   UNL     1      26.750  -8.333  43.017  0.00  0.00    +0.000 OA
BRANCH  29  31
ATOM     30  C   UNL     1      27.675  -8.790  45.166  0.00  0.00    +0.000 C 
ATOM     31  C   UNL     1      27.916  -8.848  43.670  0.00  0.00    +0.000 C 
ENDBRANCH  29  31
ENDBRANCH  27  29
ENDBRANCH  22  27
ENDBRANCH  18  26
ENDBRANCH  17  19
ENDBRANCH   1  17
TORSDOF 10
ENDMDL
MODEL 4
REMARK minimizedAffinity -8.16715622
REMARK minimizedRMSD -1
REMARK  Name = 
REMARK  11 active torsions:
REMARK  status: ('A' for Active; 'I' for Inactive)
REMARK    1  A    between atoms: C_1  and  C_2
REMARK    2  A    between atoms: C_2  and  O_3
REMARK    3  A    between atoms: O_3  and  C_4
REMARK    4  A    between atoms: C_4  and  C_6
REMARK    5  A    between atoms: C_10  and  N_11
REMARK    6  A    between atoms: C_12  and  C_14
REMARK    7  A    between atoms: C_14  and  C_15
REMARK    8  A    between atoms: C_18  and  O_19
REMARK    9  A    between atoms: O_19  and  C_20
REMARK   10  A    between atoms: C_20  and  C_21
REMARK   11  A    between atoms: C_21  and  N_22
REMARK                            x       y       z     vdW  Elec       q    Type
REMARK                         _______ _______ _______ _____ _____    ______ ____
ROOT
ATOM      1  C   UNL     1      23.675  -6.285  39.279  0.00  0.00    +0.000 A 
ATOM      2  C   UNL     1      24.162  -7.398  39.972  0.00  0.00    +0.000 A 
ATOM      3  C   UNL     1      25.441  -7.386  40.534  0.00  0.00    +0.000 A 
ATOM      4  C   UNL     1      26.259  -6.260  40.415  0.00  0.00    +0.000 A 
ATOM      5  C   UNL     1      25.771  -5.139  39.742  0.00  0.00    +0.000 A 
ATOM      6  C   UNL     1      24.491  -5.151  39.176  0.00  0.00    +0.000 A 
ENDROOT
BRANCH   4   7
ATOM      7  O   UNL     1      27.513  -6.152  40.974  0.00  0.00    +0.000 OA
BRANCH   7   8
ATOM      8  C   UNL     1      27.555  -5.379  42.178  0.00  0.00    +0.000 C 
BRANCH   8   9
ATOM      9  C   UNL     1      28.061  -6.246  43.338  0.00  0.00    +0.000 C 
BRANCH   9  10
ATOM     10  N   UNL     1      28.359  -5.435  44.590  0.00  0.00    +0.000 N 
ATOM     11  C   UNL     1      29.145  -6.199  45.653  0.00  0.00    +0.000 C 
ATOM     12  C   UNL     1      29.466  -5.283  46.838  0.00  0.00    +0.000 C 
ATOM     13  O   UNL     1      30.185  -4.123  46.411  0.00  0.00    +0.000 OA
ATOM     14  C   UNL     1      29.410  -3.339  45.499  0.00  0.00    +0.000 C 
ATOM     15  C   UNL     1      29.084  -4.137  44.233  0.00  0.00    +0.000 C 
ATOM     16  H   UNL     1      27.442  -5.194  45.001  0.00  0.00    +0.000 HD
ENDBRANCH   9  10
ENDBRANCH   8   9
ENDBRANCH   7   8
ENDBRANCH   4   7
BRANCH   1  17
ATOM     17  C   UNL     1      22.277  -6.291  38.712  0.00  0.00    +0.000 C 
BRANCH  17  19
ATOM     18  N   UNL     1      22.534  -6.626  36.320  0.00  0.00    +0.000 N 
ATOM     19  C   UNL     1      22.213  -5.704  37.307  0.00  0.00    +0.000 C 
ATOM     20  O   UNL     1      21.846  -4.548  37.106  0.00  0.00    +0.000 OA
ATOM     21  H   UNL     1      22.304  -7.595  36.504  0.00  0.00    +0.000 HD
BRANCH  18  26
ATOM     22  C   UNL     1      21.491  -6.233  34.052  0.00  0.00    +0.000 A 
ATOM     23  C   UNL     1      22.033  -5.895  32.760  0.00  0.00    +0.000 A 
ATOM     24  C   UNL     1      23.380  -5.608  32.808  0.00  0.00    +0.000 A 
ATOM     25  S   UNL     1      23.992  -5.689  34.403  0.00  0.00    +0.000 S 
ATOM     26  C   UNL     1      22.498  -6.242  34.996  0.00  0.00    +0.000 A 
BRANCH  22  27
ATOM     27  C   UNL     1      20.097  -6.520  34.362  0.00  0.00    +0.000 C 
ATOM     28  O   UNL     1      19.614  -6.421  35.484  0.00  0.00    +0.000 OA
BRANCH  27  29
ATOM     29  O   UNL     1      19.406  -6.945  33.264  0.00  0.00    +0.000 OA
BRANCH  29  31
ATOM     30  C   UNL     1      18.616  -5.476  31.561  0.00  0.00    +0.000 C 
ATOM     31  C   UNL     1      18.306  -6.099  32.908  0.00  0.00    +0.000 C 
ENDBRANCH  29  31
ENDBRANCH  27  29
ENDBRANCH  22  27
ENDBRANCH  18  26
ENDBRANCH  17  19
ENDBRANCH   1  17
TORSDOF 10
ENDMDL
MODEL 5
REMARK minimizedAffinity -8.11471748
REMARK minimizedRMSD -1
REMARK  Name = 
REMARK  11 active torsions:
REMARK  status: ('A' for Active; 'I' for Inactive)
REMARK    1  A    between atoms: C_1  and  C_2
REMARK    2  A    between atoms: C_2  and  O_3
REMARK    3  A    between atoms: O_3  and  C_4
REMARK    4  A    between atoms: C_4  and  C_6
REMARK    5  A    between atoms: C_10  and  N_11
REMARK    6  A    between atoms: C_12  and  C_14
REMARK    7  A    between atoms: C_14  and  C_15
REMARK    8  A    between atoms: C_18  and  O_19
REMARK    9  A    between atoms: O_19  and  C_20
REMARK   10  A    between atoms: C_20  and  C_21
REMARK   11  A    between atoms: C_21  and  N_22
REMARK                            x       y       z     vdW  Elec       q    Type
REMARK                         _______ _______ _______ _____ _____    ______ ____
ROOT
ATOM      1  C   UNL     1      28.321  -4.067  43.990  0.00  0.00    +0.000 A 
ATOM      2  C   UNL     1      27.692  -3.562  42.847  0.00  0.00    +0.000 A 
ATOM      3  C   UNL     1      27.108  -4.423  41.914  0.00  0.00    +0.000 A 
ATOM      4  C   UNL     1      27.140  -5.806  42.106  0.00  0.00    +0.000 A 
ATOM      5  C   UNL     1      27.747  -6.315  43.255  0.00  0.00    +0.000 A 
ATOM      6  C   UNL     1      28.336  -5.453  44.189  0.00  0.00    +0.000 A 
ENDROOT
BRANCH   4   7
ATOM      7  O   UNL     1      26.553  -6.719  41.259  0.00  0.00    +0.000 OA
BRANCH   7   8
ATOM      8  C   UNL     1      25.795  -6.132  40.195  0.00  0.00    +0.000 C 
BRANCH   8   9
ATOM      9  C   UNL     1      24.492  -6.914  39.988  0.00  0.00    +0.000 C 
BRANCH   9  10
ATOM     10  N   UNL     1      23.703  -6.430  38.781  0.00  0.00    +0.000 N 
ATOM     11  C   UNL     1      22.191  -6.405  38.996  0.00  0.00    +0.000 C 
ATOM     12  C   UNL     1      21.488  -5.833  37.761  0.00  0.00    +0.000 C 
ATOM     13  O   UNL     1      21.978  -4.526  37.451  0.00  0.00    +0.000 OA
ATOM     14  C   UNL     1      23.374  -4.555  37.138  0.00  0.00    +0.000 C 
ATOM     15  C   UNL     1      24.191  -5.052  38.333  0.00  0.00    +0.000 C 
ATOM     16  H   UNL     1      23.894  -7.106  38.024  0.00  0.00    +0.000 HD
ENDBRANCH   9  10
ENDBRANCH   8   9
ENDBRANCH   7   8
ENDBRANCH   4   7
BRANCH   1  17
ATOM     17  C   UNL     1      28.912  -3.128  45.013  0.00  0.00    +0.000 C 
BRANCH  17  19
ATOM     18  N   UNL     1      30.870  -3.223  46.447  0.00  0.00    +0.000 N 
ATOM     19  C   UNL     1      29.686  -3.862  46.101  0.00  0.00    +0.000 C 
ATOM     20  O   UNL     1      29.243  -4.874  46.638  0.00  0.00    +0.000 OA
ATOM     21  H   UNL     1      30.887  -2.213  46.368  0.00  0.00    +0.000 HD
BRANCH  18  26
ATOM     22  C   UNL     1      32.032  -3.314  48.690  0.00  0.00    +0.000 A 
ATOM     23  C   UNL     1      33.032  -4.187  49.250  0.00  0.00    +0.000 A 
ATOM     24  C   UNL     1      33.314  -5.262  48.435  0.00  0.00    +0.000 A 
ATOM     25  S   UNL     1      32.349  -5.262  47.023  0.00  0.00    +0.000 S 
ATOM     26  C   UNL     1      31.667  -3.761  47.436  0.00  0.00    +0.000 A 
BRANCH  22  27
ATOM     27  C   UNL     1      31.459  -2.132  49.319  0.00  0.00    +0.000 C 
ATOM     28  O   UNL     1      32.056  -1.435  50.132  0.00  0.00    +0.000 OA
BRANCH  27  29
ATOM     29  O   UNL     1      30.170  -1.916  48.925  0.00  0.00    +0.000 OA
BRANCH  29  31
ATOM     30  C   UNL     1      28.458  -3.482  49.473  0.00  0.00    +0.000 C 
ATOM     31  C   UNL     1      29.196  -2.237  49.925  0.00  0.00    +0.000 C 
ENDBRANCH  29  31
ENDBRANCH  27  29
ENDBRANCH  22  27
ENDBRANCH  18  26
ENDBRANCH  17  19
ENDBRANCH   1  17
TORSDOF 10
ENDMDL
