REMARK  Name = 
REMARK  12 active torsions:
REMARK  status: ('A' for Active; 'I' for Inactive)
REMARK    1  A    between atoms: C_1  and  C_2
REMARK    2  A    between atoms: C_2  and  O_3
REMARK    3  A    between atoms: O_3  and  C_4
REMARK    4  A    between atoms: C_4  and  C_6
REMARK    5  A    between atoms: C_10  and  N_11
REMARK    6  A    between atoms: C_12  and  C_14
REMARK    7  A    between atoms: C_14  and  C_15
REMARK    8  A    between atoms: C_18  and  O_19
REMARK    9  A    between atoms: O_19  and  C_20
REMARK   10  A    between atoms: C_20  and  C_21
REMARK   11  A    between atoms: C_21  and  N_22
REMARK   12  A    between atoms: N_25  and  C_26
REMARK                            x       y       z     vdW  Elec       q    Type
REMARK                         _______ _______ _______ _____ _____    ______ ____
ROOT
ATOM      1  C   UNL     1       6.299  -0.959  -2.575  0.00  0.00    +0.000 A 
ATOM      2  C   UNL     1       7.078  -2.094  -2.852  0.00  0.00    +0.000 A 
ATOM      3  C   UNL     1       6.594  -3.382  -2.568  0.00  0.00    +0.000 A 
ATOM      4  C   UNL     1       5.332  -3.562  -1.998  0.00  0.00    +0.000 A 
ATOM      5  C   UNL     1       4.527  -2.440  -1.794  0.00  0.00    +0.000 A 
ATOM      6  C   UNL     1       5.001  -1.151  -2.081  0.00  0.00    +0.000 A 
ENDROOT
BRANCH   4   7
ATOM      7  O   UNL     1       4.787  -4.761  -1.602  0.00  0.00    +0.000 OA
BRANCH   7   8
ATOM      8  C   UNL     1       5.679  -5.881  -1.582  0.00  0.00    +0.000 C 
BRANCH   8   9
ATOM      9  C   UNL     1       5.133  -7.008  -0.676  0.00  0.00    +0.000 C 
BRANCH   9  10
ATOM     10  N   UNL     1       4.054  -7.860  -1.234  0.00  0.00    +0.000 NA
ATOM     11  C   UNL     1       2.759  -7.168  -1.353  0.00  0.00    +0.000 C 
ATOM     12  C   UNL     1       2.100  -6.780  -0.013  0.00  0.00    +0.000 C 
ATOM     13  N   UNL     1       2.100  -7.920   1.009  0.00  0.00    +0.000 N 
ATOM     14  C   UNL     1       1.854  -7.379   2.394  0.00  0.00    +0.000 C 
ATOM     15  C   UNL     1       3.331  -8.817   1.000  0.00  0.00    +0.000 C 
ATOM     16  C   UNL     1       3.851  -9.079  -0.424  0.00  0.00    +0.000 C 
ATOM     17  H   UNL     1       1.304  -8.522   0.762  0.00  0.00    +0.000 HD
ENDBRANCH   9  10
ENDBRANCH   8   9
ENDBRANCH   7   8
ENDBRANCH   4   7
BRANCH   1  18
ATOM     18  C   UNL     1       6.839   0.431  -2.826  0.00  0.00    +0.000 C 
BRANCH  18  20
ATOM     19  N   UNL     1       6.645   2.375  -4.267  0.00  0.00    +0.000 N 
ATOM     20  C   UNL     1       6.555   0.985  -4.212  0.00  0.00    +0.000 C 
ATOM     21  O   UNL     1       6.360   0.264  -5.187  0.00  0.00    +0.000 OA
ATOM     22  H   UNL     1       7.302   2.832  -3.649  0.00  0.00    +0.000 HD
BRANCH  19  27
ATOM     23  C   UNL     1       5.344   2.860  -6.378  0.00  0.00    +0.000 A 
ATOM     24  C   UNL     1       5.618   3.658  -7.545  0.00  0.00    +0.000 A 
ATOM     25  C   UNL     1       6.741   4.444  -7.398  0.00  0.00    +0.000 A 
ATOM     26  S   UNL     1       7.437   4.270  -5.844  0.00  0.00    +0.000 S 
ATOM     27  C   UNL     1       6.349   3.029  -5.446  0.00  0.00    +0.000 A 
BRANCH  23  28
ATOM     28  C   UNL     1       4.192   1.990  -6.174  0.00  0.00    +0.000 C 
ATOM     29  O   UNL     1       3.747   1.700  -5.067  0.00  0.00    +0.000 OA
BRANCH  28  30
ATOM     30  O   UNL     1       3.682   1.526  -7.353  0.00  0.00    +0.000 OA
BRANCH  30  32
ATOM     31  C   UNL     1       3.762  -0.863  -7.190  0.00  0.00    +0.000 C 
ATOM     32  C   UNL     1       2.861   0.359  -7.221  0.00  0.00    +0.000 C 
ENDBRANCH  30  32
ENDBRANCH  28  30
ENDBRANCH  23  28
ENDBRANCH  19  27
ENDBRANCH  18  20
ENDBRANCH   1  18
TORSDOF 10
