MODEL 1
REMARK minimizedAffinity -8.38687897
REMARK minimizedRMSD -1
REMARK  Name = 
REMARK  12 active torsions:
REMARK  status: ('A' for Active; 'I' for Inactive)
REMARK    1  A    between atoms: C_1  and  C_2
REMARK    2  A    between atoms: C_2  and  O_3
REMARK    3  A    between atoms: O_3  and  C_4
REMARK    4  A    between atoms: C_4  and  C_6
REMARK    5  A    between atoms: C_10  and  N_11
REMARK    6  A    between atoms: C_12  and  C_14
REMARK    7  A    between atoms: C_14  and  C_15
REMARK    8  A    between atoms: C_18  and  O_19
REMARK    9  A    between atoms: O_19  and  C_20
REMARK   10  A    between atoms: C_20  and  C_21
REMARK   11  A    between atoms: C_21  and  N_22
REMARK   12  A    between atoms: N_25  and  C_26
REMARK                            x       y       z     vdW  Elec       q    Type
REMARK                         _______ _______ _______ _____ _____    ______ ____
ROOT
ATOM      1  C   UNL     1      25.438  -7.039  40.379  0.00  0.00    +0.000 A 
ATOM      2  C   UNL     1      25.811  -5.746  39.979  0.00  0.00    +0.000 A 
ATOM      3  C   UNL     1      25.018  -5.019  39.075  0.00  0.00    +0.000 A 
ATOM      4  C   UNL     1      23.847  -5.568  38.549  0.00  0.00    +0.000 A 
ATOM      5  C   UNL     1      23.436  -6.822  39.004  0.00  0.00    +0.000 A 
ATOM      6  C   UNL     1      24.219  -7.551  39.912  0.00  0.00    +0.000 A 
ENDROOT
BRANCH   4   7
ATOM      7  O   UNL     1      23.038  -4.989  37.599  0.00  0.00    +0.000 OA
BRANCH   7   8
ATOM      8  C   UNL     1      22.562  -5.857  36.565  0.00  0.00    +0.000 C 
BRANCH   8   9
ATOM      9  C   UNL     1      23.469  -5.781  35.316  0.00  0.00    +0.000 C 
BRANCH   9  10
ATOM     10  N   UNL     1      23.414  -6.923  34.370  0.00  0.00    +0.000 NA
ATOM     11  C   UNL     1      24.495  -6.911  33.369  0.00  0.00    +0.000 C 
ATOM     12  C   UNL     1      24.435  -5.748  32.357  0.00  0.00    +0.000 C 
ATOM     13  N   UNL     1      23.039  -5.540  31.763  0.00  0.00    +0.000 N 
ATOM     14  C   UNL     1      22.936  -4.172  31.140  0.00  0.00    +0.000 C 
ATOM     15  C   UNL     1      21.873  -5.781  32.712  0.00  0.00    +0.000 C 
ATOM     16  C   UNL     1      22.123  -6.972  33.653  0.00  0.00    +0.000 C 
ATOM     17  H   UNL     1      22.945  -6.235  31.010  0.00  0.00    +0.000 HD
ENDBRANCH   9  10
ENDBRANCH   8   9
ENDBRANCH   7   8
ENDBRANCH   4   7
BRANCH   1  18
ATOM     18  C   UNL     1      26.317  -7.847  41.307  0.00  0.00    +0.000 C 
BRANCH  18  20
ATOM     19  N   UNL     1      27.009  -6.311  43.055  0.00  0.00    +0.000 N 
ATOM     20  C   UNL     1      27.441  -7.063  41.963  0.00  0.00    +0.000 C 
ATOM     21  O   UNL     1      28.614  -7.165  41.613  0.00  0.00    +0.000 OA
ATOM     22  H   UNL     1      26.237  -6.668  43.601  0.00  0.00    +0.000 HD
BRANCH  19  27
ATOM     23  C   UNL     1      28.695  -5.687  44.831  0.00  0.00    +0.000 A 
ATOM     24  C   UNL     1      29.283  -4.437  45.238  0.00  0.00    +0.000 A 
ATOM     25  C   UNL     1      28.990  -3.406  44.371  0.00  0.00    +0.000 A 
ATOM     26  S   UNL     1      28.058  -3.943  43.039  0.00  0.00    +0.000 S 
ATOM     27  C   UNL     1      27.905  -5.493  43.714  0.00  0.00    +0.000 A 
BRANCH  23  28
ATOM     28  C   UNL     1      28.878  -6.981  45.475  0.00  0.00    +0.000 C 
ATOM     29  O   UNL     1      29.881  -7.286  46.115  0.00  0.00    +0.000 OA
BRANCH  28  30
ATOM     30  O   UNL     1      27.816  -7.815  45.269  0.00  0.00    +0.000 OA
BRANCH  30  32
ATOM     31  C   UNL     1      27.363 -10.048  46.008  0.00  0.00    +0.000 C 
ATOM     32  C   UNL     1      28.175  -9.186  45.058  0.00  0.00    +0.000 C 
ENDBRANCH  30  32
ENDBRANCH  28  30
ENDBRANCH  23  28
ENDBRANCH  19  27
ENDBRANCH  18  20
ENDBRANCH   1  18
TORSDOF 10
ENDMDL
MODEL 2
REMARK minimizedAffinity -8.03066444
REMARK minimizedRMSD -1
REMARK  Name = 
REMARK  12 active torsions:
REMARK  status: ('A' for Active; 'I' for Inactive)
REMARK    1  A    between atoms: C_1  and  C_2
REMARK    2  A    between atoms: C_2  and  O_3
REMARK    3  A    between atoms: O_3  and  C_4
REMARK    4  A    between atoms: C_4  and  C_6
REMARK    5  A    between atoms: C_10  and  N_11
REMARK    6  A    between atoms: C_12  and  C_14
REMARK    7  A    between atoms: C_14  and  C_15
REMARK    8  A    between atoms: C_18  and  O_19
REMARK    9  A    between atoms: O_19  and  C_20
REMARK   10  A    between atoms: C_20  and  C_21
REMARK   11  A    between atoms: C_21  and  N_22
REMARK   12  A    between atoms: N_25  and  C_26
REMARK                            x       y       z     vdW  Elec       q    Type
REMARK                         _______ _______ _______ _____ _____    ______ ____
ROOT
ATOM      1  C   UNL     1      25.464  -6.999  40.443  0.00  0.00    +0.000 A 
ATOM      2  C   UNL     1      25.781  -5.710  39.984  0.00  0.00    +0.000 A 
ATOM      3  C   UNL     1      24.975  -5.072  39.027  0.00  0.00    +0.000 A 
ATOM      4  C   UNL     1      23.846  -5.707  38.505  0.00  0.00    +0.000 A 
ATOM      5  C   UNL     1      23.487  -6.955  39.017  0.00  0.00    +0.000 A 
ATOM      6  C   UNL     1      24.284  -7.596  39.978  0.00  0.00    +0.000 A 
ENDROOT
BRANCH   4   7
ATOM      7  O   UNL     1      23.031  -5.219  37.510  0.00  0.00    +0.000 OA
BRANCH   7   8
ATOM      8  C   UNL     1      23.568  -5.257  36.183  0.00  0.00    +0.000 C 
BRANCH   8   9
ATOM      9  C   UNL     1      22.836  -6.309  35.319  0.00  0.00    +0.000 C 
BRANCH   9  10
ATOM     10  N   UNL     1      22.565  -5.952  33.905  0.00  0.00    +0.000 NA
ATOM     11  C   UNL     1      21.885  -7.017  33.148  0.00  0.00    +0.000 C 
ATOM     12  C   UNL     1      22.720  -8.295  32.925  0.00  0.00    +0.000 C 
ATOM     13  N   UNL     1      24.144  -8.007  32.442  0.00  0.00    +0.000 N 
ATOM     14  C   UNL     1      25.021  -9.214  32.654  0.00  0.00    +0.000 C 
ATOM     15  C   UNL     1      24.801  -6.763  33.026  0.00  0.00    +0.000 C 
ATOM     16  C   UNL     1      23.808  -5.599  33.187  0.00  0.00    +0.000 C 
ATOM     17  H   UNL     1      24.072  -7.846  31.429  0.00  0.00    +0.000 HD
ENDBRANCH   9  10
ENDBRANCH   8   9
ENDBRANCH   7   8
ENDBRANCH   4   7
BRANCH   1  18
ATOM     18  C   UNL     1      26.361  -7.712  41.430  0.00  0.00    +0.000 C 
BRANCH  18  20
ATOM     19  N   UNL     1      27.027  -5.972  42.986  0.00  0.00    +0.000 N 
ATOM     20  C   UNL     1      27.477  -6.859  42.009  0.00  0.00    +0.000 C 
ATOM     21  O   UNL     1      28.656  -7.013  41.703  0.00  0.00    +0.000 OA
ATOM     22  H   UNL     1      26.239  -6.252  43.554  0.00  0.00    +0.000 HD
BRANCH  19  27
ATOM     23  C   UNL     1      28.693  -5.149  44.699  0.00  0.00    +0.000 A 
ATOM     24  C   UNL     1      29.276  -3.860  44.969  0.00  0.00    +0.000 A 
ATOM     25  C   UNL     1      28.993  -2.934  43.987  0.00  0.00    +0.000 A 
ATOM     26  S   UNL     1      28.076  -3.620  42.715  0.00  0.00    +0.000 S 
ATOM     27  C   UNL     1      27.916  -5.084  43.559  0.00  0.00    +0.000 A 
BRANCH  23  28
ATOM     28  C   UNL     1      28.869  -6.362  45.488  0.00  0.00    +0.000 C 
ATOM     29  O   UNL     1      28.401  -7.452  45.172  0.00  0.00    +0.000 OA
BRANCH  28  30
ATOM     30  O   UNL     1      29.598  -6.138  46.621  0.00  0.00    +0.000 OA
BRANCH  30  32
ATOM     31  C   UNL     1      31.860  -5.455  47.021  0.00  0.00    +0.000 C 
ATOM     32  C   UNL     1      30.959  -6.580  46.543  0.00  0.00    +0.000 C 
ENDBRANCH  30  32
ENDBRANCH  28  30
ENDBRANCH  23  28
ENDBRANCH  19  27
ENDBRANCH  18  20
ENDBRANCH   1  18
TORSDOF 10
ENDMDL
MODEL 3
REMARK minimizedAffinity -7.76912689
REMARK minimizedRMSD -1
REMARK  Name = 
REMARK  12 active torsions:
REMARK  status: ('A' for Active; 'I' for Inactive)
REMARK    1  A    between atoms: C_1  and  C_2
REMARK    2  A    between atoms: C_2  and  O_3
REMARK    3  A    between atoms: O_3  and  C_4
REMARK    4  A    between atoms: C_4  and  C_6
REMARK    5  A    between atoms: C_10  and  N_11
REMARK    6  A    between atoms: C_12  and  C_14
REMARK    7  A    between atoms: C_14  and  C_15
REMARK    8  A    between atoms: C_18  and  O_19
REMARK    9  A    between atoms: O_19  and  C_20
REMARK   10  A    between atoms: C_20  and  C_21
REMARK   11  A    between atoms: C_21  and  N_22
REMARK   12  A    between atoms: N_25  and  C_26
REMARK                            x       y       z     vdW  Elec       q    Type
REMARK                         _______ _______ _______ _____ _____    ______ ____
ROOT
ATOM      1  C   UNL     1      29.444  -4.615  45.164  0.00  0.00    +0.000 A 
ATOM      2  C   UNL     1      29.576  -5.292  46.388  0.00  0.00    +0.000 A 
ATOM      3  C   UNL     1      29.472  -4.598  47.605  0.00  0.00    +0.000 A 
ATOM      4  C   UNL     1      29.244  -3.220  47.626  0.00  0.00    +0.000 A 
ATOM      5  C   UNL     1      29.036  -2.561  46.413  0.00  0.00    +0.000 A 
ATOM      6  C   UNL     1      29.132  -3.249  45.193  0.00  0.00    +0.000 A 
ENDROOT
BRANCH   4   7
ATOM      7  O   UNL     1      29.205  -2.424  48.746  0.00  0.00    +0.000 OA
BRANCH   7   8
ATOM      8  C   UNL     1      30.438  -2.287  49.463  0.00  0.00    +0.000 C 
BRANCH   8   9
ATOM      9  C   UNL     1      30.566  -0.875  50.080  0.00  0.00    +0.000 C 
BRANCH   9  10
ATOM     10  N   UNL     1      31.100  -0.788  51.461  0.00  0.00    +0.000 NA
ATOM     11  C   UNL     1      30.660   0.416  52.188  0.00  0.00    +0.000 C 
ATOM     12  C   UNL     1      31.199   1.749  51.630  0.00  0.00    +0.000 C 
ATOM     13  N   UNL     1      32.702   1.716  51.341  0.00  0.00    +0.000 N 
ATOM     14  C   UNL     1      33.082   2.848  50.422  0.00  0.00    +0.000 C 
ATOM     15  C   UNL     1      33.245   0.396  50.810  0.00  0.00    +0.000 C 
ATOM     16  C   UNL     1      32.577  -0.820  51.476  0.00  0.00    +0.000 C 
ATOM     17  H   UNL     1      33.168   1.876  52.244  0.00  0.00    +0.000 HD
ENDBRANCH   9  10
ENDBRANCH   8   9
ENDBRANCH   7   8
ENDBRANCH   4   7
BRANCH   1  18
ATOM     18  C   UNL     1      29.612  -5.348  43.852  0.00  0.00    +0.000 C 
BRANCH  18  20
ATOM     19  N   UNL     1      28.429  -6.445  42.039  0.00  0.00    +0.000 N 
ATOM     20  C   UNL     1      28.389  -6.124  43.395  0.00  0.00    +0.000 C 
ATOM     21  O   UNL     1      27.513  -6.500  44.170  0.00  0.00    +0.000 OA
ATOM     22  H   UNL     1      29.334  -6.604  41.616  0.00  0.00    +0.000 HD
BRANCH  19  27
ATOM     23  C   UNL     1      26.237  -6.633  40.796  0.00  0.00    +0.000 A 
ATOM     24  C   UNL     1      25.309  -7.714  40.590  0.00  0.00    +0.000 A 
ATOM     25  C   UNL     1      25.805  -8.928  41.016  0.00  0.00    +0.000 A 
ATOM     26  S   UNL     1      27.403  -8.784  41.611  0.00  0.00    +0.000 S 
ATOM     27  C   UNL     1      27.356  -7.094  41.462  0.00  0.00    +0.000 A 
BRANCH  23  28
ATOM     28  C   UNL     1      26.058  -5.247  40.382  0.00  0.00    +0.000 C 
ATOM     29  O   UNL     1      26.257  -4.286  41.121  0.00  0.00    +0.000 OA
BRANCH  28  30
ATOM     30  O   UNL     1      25.629  -5.146  39.090  0.00  0.00    +0.000 OA
BRANCH  30  32
ATOM     31  C   UNL     1      23.891  -4.721  37.496  0.00  0.00    +0.000 C 
ATOM     32  C   UNL     1      24.323  -4.576  38.945  0.00  0.00    +0.000 C 
ENDBRANCH  30  32
ENDBRANCH  28  30
ENDBRANCH  23  28
ENDBRANCH  19  27
ENDBRANCH  18  20
ENDBRANCH   1  18
TORSDOF 10
ENDMDL
MODEL 4
REMARK minimizedAffinity -7.73363018
REMARK minimizedRMSD -1
REMARK  Name = 
REMARK  12 active torsions:
REMARK  status: ('A' for Active; 'I' for Inactive)
REMARK    1  A    between atoms: C_1  and  C_2
REMARK    2  A    between atoms: C_2  and  O_3
REMARK    3  A    between atoms: O_3  and  C_4
REMARK    4  A    between atoms: C_4  and  C_6
REMARK    5  A    between atoms: C_10  and  N_11
REMARK    6  A    between atoms: C_12  and  C_14
REMARK    7  A    between atoms: C_14  and  C_15
REMARK    8  A    between atoms: C_18  and  O_19
REMARK    9  A    between atoms: O_19  and  C_20
REMARK   10  A    between atoms: C_20  and  C_21
REMARK   11  A    between atoms: C_21  and  N_22
REMARK   12  A    between atoms: N_25  and  C_26
REMARK                            x       y       z     vdW  Elec       q    Type
REMARK                         _______ _______ _______ _____ _____    ______ ____
ROOT
ATOM      1  C   UNL     1      24.800  -6.035  39.626  0.00  0.00    +0.000 A 
ATOM      2  C   UNL     1      24.960  -5.003  38.687  0.00  0.00    +0.000 A 
ATOM      3  C   UNL     1      23.873  -4.565  37.912  0.00  0.00    +0.000 A 
ATOM      4  C   UNL     1      22.613  -5.149  38.053  0.00  0.00    +0.000 A 
ATOM      5  C   UNL     1      22.435  -6.120  39.040  0.00  0.00    +0.000 A 
ATOM      6  C   UNL     1      23.515  -6.559  39.822  0.00  0.00    +0.000 A 
ENDROOT
BRANCH   4   7
ATOM      7  O   UNL     1      21.500  -4.863  37.298  0.00  0.00    +0.000 OA
BRANCH   7   8
ATOM      8  C   UNL     1      20.906  -5.969  36.609  0.00  0.00    +0.000 C 
BRANCH   8   9
ATOM      9  C   UNL     1      21.720  -6.338  35.348  0.00  0.00    +0.000 C 
BRANCH   9  10
ATOM     10  N   UNL     1      21.246  -5.790  34.053  0.00  0.00    +0.000 NA
ATOM     11  C   UNL     1      19.886  -6.228  33.691  0.00  0.00    +0.000 C 
ATOM     12  C   UNL     1      19.744  -7.735  33.390  0.00  0.00    +0.000 C 
ATOM     13  N   UNL     1      20.834  -8.267  32.456  0.00  0.00    +0.000 N 
ATOM     14  C   UNL     1      20.907  -9.770  32.542  0.00  0.00    +0.000 C 
ATOM     15  C   UNL     1      22.218  -7.657  32.638  0.00  0.00    +0.000 C 
ATOM     16  C   UNL     1      22.155  -6.150  32.945  0.00  0.00    +0.000 C 
ATOM     17  H   UNL     1      20.535  -8.022  31.503  0.00  0.00    +0.000 HD
ENDBRANCH   9  10
ENDBRANCH   8   9
ENDBRANCH   7   8
ENDBRANCH   4   7
BRANCH   1  18
ATOM     18  C   UNL     1      25.980  -6.548  40.421  0.00  0.00    +0.000 C 
BRANCH  18  20
ATOM     19  N   UNL     1      27.623  -6.077  42.144  0.00  0.00    +0.000 N 
ATOM     20  C   UNL     1      26.599  -5.535  41.370  0.00  0.00    +0.000 C 
ATOM     21  O   UNL     1      26.280  -4.349  41.373  0.00  0.00    +0.000 OA
ATOM     22  H   UNL     1      28.179  -6.820  41.743  0.00  0.00    +0.000 HD
BRANCH  19  27
ATOM     23  C   UNL     1      28.592  -5.534  44.414  0.00  0.00    +0.000 A 
ATOM     24  C   UNL     1      29.008  -4.306  45.041  0.00  0.00    +0.000 A 
ATOM     25  C   UNL     1      29.037  -3.244  44.162  0.00  0.00    +0.000 A 
ATOM     26  S   UNL     1      28.622  -3.726  42.573  0.00  0.00    +0.000 S 
ATOM     27  C   UNL     1      28.239  -5.294  43.100  0.00  0.00    +0.000 A 
BRANCH  23  28
ATOM     28  C   UNL     1      28.537  -6.850  45.037  0.00  0.00    +0.000 C 
ATOM     29  O   UNL     1      29.281  -7.203  45.948  0.00  0.00    +0.000 OA
BRANCH  28  30
ATOM     30  O   UNL     1      27.576  -7.644  44.479  0.00  0.00    +0.000 OA
BRANCH  30  32
ATOM     31  C   UNL     1      27.287  -9.662  45.738  0.00  0.00    +0.000 C 
ATOM     32  C   UNL     1      27.888  -9.043  44.489  0.00  0.00    +0.000 C 
ENDBRANCH  30  32
ENDBRANCH  28  30
ENDBRANCH  23  28
ENDBRANCH  19  27
ENDBRANCH  18  20
ENDBRANCH   1  18
TORSDOF 10
ENDMDL
MODEL 5
REMARK minimizedAffinity -7.67915297
REMARK minimizedRMSD -1
REMARK  Name = 
REMARK  12 active torsions:
REMARK  status: ('A' for Active; 'I' for Inactive)
REMARK    1  A    between atoms: C_1  and  C_2
REMARK    2  A    between atoms: C_2  and  O_3
REMARK    3  A    between atoms: O_3  and  C_4
REMARK    4  A    between atoms: C_4  and  C_6
REMARK    5  A    between atoms: C_10  and  N_11
REMARK    6  A    between atoms: C_12  and  C_14
REMARK    7  A    between atoms: C_14  and  C_15
REMARK    8  A    between atoms: C_18  and  O_19
REMARK    9  A    between atoms: O_19  and  C_20
REMARK   10  A    between atoms: C_20  and  C_21
REMARK   11  A    between atoms: C_21  and  N_22
REMARK   12  A    between atoms: N_25  and  C_26
REMARK                            x       y       z     vdW  Elec       q    Type
REMARK                         _______ _______ _______ _____ _____    ______ ____
ROOT
ATOM      1  C   UNL     1      28.605  -6.190  44.568  0.00  0.00    +0.000 A 
ATOM      2  C   UNL     1      28.392  -4.898  44.061  0.00  0.00    +0.000 A 
ATOM      3  C   UNL     1      27.573  -4.695  42.937  0.00  0.00    +0.000 A 
ATOM      4  C   UNL     1      26.961  -5.773  42.295  0.00  0.00    +0.000 A 
ATOM      5  C   UNL     1      27.111  -7.048  42.844  0.00  0.00    +0.000 A 
ATOM      6  C   UNL     1      27.921  -7.257  43.970  0.00  0.00    +0.000 A 
ENDROOT
BRANCH   4   7
ATOM      7  O   UNL     1      26.209  -5.709  41.145  0.00  0.00    +0.000 OA
BRANCH   7   8
ATOM      8  C   UNL     1      25.883  -6.963  40.536  0.00  0.00    +0.000 C 
BRANCH   8   9
ATOM      9  C   UNL     1      24.723  -6.803  39.527  0.00  0.00    +0.000 C 
BRANCH   9  10
ATOM     10  N   UNL     1      23.829  -5.632  39.705  0.00  0.00    +0.000 NA
ATOM     11  C   UNL     1      22.405  -5.939  39.489  0.00  0.00    +0.000 C 
ATOM     12  C   UNL     1      22.030  -6.319  38.042  0.00  0.00    +0.000 C 
ATOM     13  N   UNL     1      22.622  -5.367  36.999  0.00  0.00    +0.000 N 
ATOM     14  C   UNL     1      22.596  -6.007  35.634  0.00  0.00    +0.000 C 
ATOM     15  C   UNL     1      24.014  -4.830  37.307  0.00  0.00    +0.000 C 
ATOM     16  C   UNL     1      24.202  -4.523  38.802  0.00  0.00    +0.000 C 
ATOM     17  H   UNL     1      21.998  -4.551  36.974  0.00  0.00    +0.000 HD
ENDBRANCH   9  10
ENDBRANCH   8   9
ENDBRANCH   7   8
ENDBRANCH   4   7
BRANCH   1  18
ATOM     18  C   UNL     1      29.531  -6.418  45.742  0.00  0.00    +0.000 C 
BRANCH  18  20
ATOM     19  N   UNL     1      30.645  -4.408  46.522  0.00  0.00    +0.000 N 
ATOM     20  C   UNL     1      29.580  -5.279  46.746  0.00  0.00    +0.000 C 
ATOM     21  O   UNL     1      28.713  -5.109  47.599  0.00  0.00    +0.000 OA
ATOM     22  H   UNL     1      30.957  -4.275  45.570  0.00  0.00    +0.000 HD
BRANCH  19  27
ATOM     23  C   UNL     1      31.742  -3.184  48.442  0.00  0.00    +0.000 A 
ATOM     24  C   UNL     1      31.404  -1.991  49.174  0.00  0.00    +0.000 A 
ATOM     25  C   UNL     1      30.366  -1.291  48.597  0.00  0.00    +0.000 A 
ATOM     26  S   UNL     1      29.831  -2.031  47.148  0.00  0.00    +0.000 S 
ATOM     27  C   UNL     1      30.860  -3.359  47.394  0.00  0.00    +0.000 A 
BRANCH  23  28
ATOM     28  C   UNL     1      32.841  -4.097  48.732  0.00  0.00    +0.000 C 
ATOM     29  O   UNL     1      32.686  -5.290  48.977  0.00  0.00    +0.000 OA
BRANCH  28  30
ATOM     30  O   UNL     1      34.052  -3.466  48.717  0.00  0.00    +0.000 OA
BRANCH  30  32
ATOM     31  C   UNL     1      35.854  -4.496  47.519  0.00  0.00    +0.000 C 
ATOM     32  C   UNL     1      35.175  -4.343  48.869  0.00  0.00    +0.000 C 
ENDBRANCH  30  32
ENDBRANCH  28  30
ENDBRANCH  23  28
ENDBRANCH  19  27
ENDBRANCH  18  20
ENDBRANCH   1  18
TORSDOF 10
ENDMDL
