MODEL 1
REMARK minimizedAffinity -8.44405651
REMARK minimizedRMSD -1
REMARK  Name = 
REMARK  15 active torsions:
REMARK  status: ('A' for Active; 'I' for Inactive)
REMARK    1  A    between atoms: C_1  and  C_2
REMARK    2  A    between atoms: C_2  and  O_3
REMARK    3  A    between atoms: O_3  and  C_4
REMARK    4  A    between atoms: C_4  and  C_6
REMARK    5  A    between atoms: C_10  and  N_11
REMARK    6  A    between atoms: C_12  and  C_14
REMARK    7  A    between atoms: C_14  and  C_15
REMARK    8  A    between atoms: C_18  and  O_19
REMARK    9  A    between atoms: O_19  and  C_20
REMARK   10  A    between atoms: C_20  and  C_21
REMARK   11  A    between atoms: C_21  and  N_22
REMARK   12  A    between atoms: N_22  and  C_23
REMARK   13  A    between atoms: C_23  and  C_24
REMARK   14  A    between atoms: C_24  and  C_25
REMARK   15  A    between atoms: C_25  and  N_26
REMARK                            x       y       z     vdW  Elec       q    Type
REMARK                         _______ _______ _______ _____ _____    ______ ____
ROOT
ATOM      1  C   UNL     1      25.546  -5.607  39.568  0.00  0.00    +0.000 A 
ATOM      2  C   UNL     1      24.832  -6.736  39.974  0.00  0.00    +0.000 A 
ATOM      3  C   UNL     1      23.466  -6.872  39.671  0.00  0.00    +0.000 A 
ATOM      4  C   UNL     1      22.813  -5.894  38.907  0.00  0.00    +0.000 A 
ATOM      5  C   UNL     1      23.530  -4.790  38.468  0.00  0.00    +0.000 A 
ATOM      6  C   UNL     1      24.891  -4.641  38.790  0.00  0.00    +0.000 A 
ENDROOT
BRANCH   1   7
ATOM      7  C   UNL     1      26.997  -5.439  39.950  0.00  0.00    +0.000 C 
BRANCH   7   9
ATOM      8  N   UNL     1      28.191  -6.050  41.988  0.00  0.00    +0.000 N 
ATOM      9  C   UNL     1      27.221  -5.213  41.444  0.00  0.00    +0.000 C 
ATOM     10  O   UNL     1      26.622  -4.330  42.055  0.00  0.00    +0.000 OA
ATOM     11  H   UNL     1      28.923  -6.371  41.367  0.00  0.00    +0.000 HD
BRANCH   8  16
ATOM     12  C   UNL     1      28.396  -6.729  44.417  0.00  0.00    +0.000 A 
ATOM     13  C   UNL     1      28.905  -6.083  45.599  0.00  0.00    +0.000 A 
ATOM     14  C   UNL     1      29.443  -4.842  45.338  0.00  0.00    +0.000 A 
ATOM     15  S   UNL     1      29.390  -4.473  43.667  0.00  0.00    +0.000 S 
ATOM     16  C   UNL     1      28.556  -5.913  43.316  0.00  0.00    +0.000 A 
BRANCH  12  17
ATOM     17  C   UNL     1      27.829  -8.066  44.369  0.00  0.00    +0.000 C 
ATOM     18  O   UNL     1      27.231  -8.528  43.399  0.00  0.00    +0.000 OA
BRANCH  17  19
ATOM     19  O   UNL     1      28.002  -8.725  45.549  0.00  0.00    +0.000 OA
BRANCH  19  21
ATOM     20  C   UNL     1      28.014 -10.973  46.336  0.00  0.00    +0.000 C 
ATOM     21  C   UNL     1      28.698  -9.966  45.428  0.00  0.00    +0.000 C 
ENDBRANCH  19  21
ENDBRANCH  17  19
ENDBRANCH  12  17
ENDBRANCH   8  16
ENDBRANCH   7   9
ENDBRANCH   1   7
BRANCH   4  22
ATOM     22  O   UNL     1      21.487  -5.933  38.528  0.00  0.00    +0.000 OA
BRANCH  22  23
ATOM     23  C   UNL     1      21.249  -5.755  37.127  0.00  0.00    +0.000 C 
BRANCH  23  24
ATOM     24  C   UNL     1      19.793  -6.114  36.851  0.00  0.00    +0.000 C 
BRANCH  24  25
ATOM     25  N   UNL     1      19.497  -5.959  35.370  0.00  0.00    +0.000 N 
ATOM     26  H   UNL     1      19.064  -5.034  35.228  0.00  0.00    +0.000 HD
ATOM     27  H   UNL     1      18.746  -6.642  35.162  0.00  0.00    +0.000 HD
BRANCH  25  28
ATOM     28  C   UNL     1      20.702  -6.150  34.510  0.00  0.00    +0.000 C 
BRANCH  28  29
ATOM     29  C   UNL     1      20.455  -7.236  33.458  0.00  0.00    +0.000 C 
BRANCH  29  30
ATOM     30  C   UNL     1      21.783  -7.735  32.878  0.00  0.00    +0.000 C 
BRANCH  30  31
ATOM     31  N   UNL     1      22.895  -7.508  33.835  0.00  0.00    +0.000 N 
ATOM     32  H   UNL     1      23.048  -6.513  34.058  0.00  0.00    +0.000 HD
ATOM     33  H   UNL     1      23.790  -7.844  33.442  0.00  0.00    +0.000 HD
ATOM     34  H   UNL     1      22.779  -8.009  34.728  0.00  0.00    +0.000 HD
ENDBRANCH  30  31
ENDBRANCH  29  30
ENDBRANCH  28  29
ENDBRANCH  25  28
ENDBRANCH  24  25
ENDBRANCH  23  24
ENDBRANCH  22  23
ENDBRANCH   4  22
TORSDOF 14
ENDMDL
MODEL 2
REMARK minimizedAffinity -8.44395638
REMARK minimizedRMSD -1
REMARK  Name = 
REMARK  15 active torsions:
REMARK  status: ('A' for Active; 'I' for Inactive)
REMARK    1  A    between atoms: C_1  and  C_2
REMARK    2  A    between atoms: C_2  and  O_3
REMARK    3  A    between atoms: O_3  and  C_4
REMARK    4  A    between atoms: C_4  and  C_6
REMARK    5  A    between atoms: C_10  and  N_11
REMARK    6  A    between atoms: C_12  and  C_14
REMARK    7  A    between atoms: C_14  and  C_15
REMARK    8  A    between atoms: C_18  and  O_19
REMARK    9  A    between atoms: O_19  and  C_20
REMARK   10  A    between atoms: C_20  and  C_21
REMARK   11  A    between atoms: C_21  and  N_22
REMARK   12  A    between atoms: N_22  and  C_23
REMARK   13  A    between atoms: C_23  and  C_24
REMARK   14  A    between atoms: C_24  and  C_25
REMARK   15  A    between atoms: C_25  and  N_26
REMARK                            x       y       z     vdW  Elec       q    Type
REMARK                         _______ _______ _______ _____ _____    ______ ____
ROOT
ATOM      1  C   UNL     1      25.545  -5.605  39.642  0.00  0.00    +0.000 A 
ATOM      2  C   UNL     1      24.915  -4.598  38.908  0.00  0.00    +0.000 A 
ATOM      3  C   UNL     1      23.578  -4.736  38.494  0.00  0.00    +0.000 A 
ATOM      4  C   UNL     1      22.841  -5.872  38.861  0.00  0.00    +0.000 A 
ATOM      5  C   UNL     1      23.453  -6.856  39.624  0.00  0.00    +0.000 A 
ATOM      6  C   UNL     1      24.797  -6.730  40.020  0.00  0.00    +0.000 A 
ENDROOT
BRANCH   1   7
ATOM      7  C   UNL     1      26.998  -5.477  40.030  0.00  0.00    +0.000 C 
BRANCH   7   9
ATOM      8  N   UNL     1      28.098  -6.266  42.060  0.00  0.00    +0.000 N 
ATOM      9  C   UNL     1      27.227  -5.317  41.531  0.00  0.00    +0.000 C 
ATOM     10  O   UNL     1      26.715  -4.394  42.163  0.00  0.00    +0.000 OA
ATOM     11  H   UNL     1      28.800  -6.644  41.436  0.00  0.00    +0.000 HD
BRANCH   8  16
ATOM     12  C   UNL     1      28.258  -7.063  44.456  0.00  0.00    +0.000 A 
ATOM     13  C   UNL     1      28.785  -6.494  45.669  0.00  0.00    +0.000 A 
ATOM     14  C   UNL     1      29.377  -5.266  45.467  0.00  0.00    +0.000 A 
ATOM     15  S   UNL     1      29.350  -4.819  43.815  0.00  0.00    +0.000 S 
ATOM     16  C   UNL     1      28.459  -6.205  43.394  0.00  0.00    +0.000 A 
BRANCH  12  17
ATOM     17  C   UNL     1      27.636  -8.371  44.344  0.00  0.00    +0.000 C 
ATOM     18  O   UNL     1      27.395  -8.932  43.276  0.00  0.00    +0.000 OA
BRANCH  17  19
ATOM     19  O   UNL     1      27.312  -8.877  45.566  0.00  0.00    +0.000 OA
BRANCH  19  21
ATOM     20  C   UNL     1      26.949 -10.894  46.781  0.00  0.00    +0.000 C 
ATOM     21  C   UNL     1      27.885 -10.157  45.839  0.00  0.00    +0.000 C 
ENDBRANCH  19  21
ENDBRANCH  17  19
ENDBRANCH  12  17
ENDBRANCH   8  16
ENDBRANCH   7   9
ENDBRANCH   1   7
BRANCH   4  22
ATOM     22  O   UNL     1      21.521  -6.104  38.535  0.00  0.00    +0.000 OA
BRANCH  22  23
ATOM     23  C   UNL     1      21.104  -5.569  37.274  0.00  0.00    +0.000 C 
BRANCH  23  24
ATOM     24  C   UNL     1      19.707  -6.104  36.977  0.00  0.00    +0.000 C 
BRANCH  24  25
ATOM     25  N   UNL     1      19.390  -5.928  35.503  0.00  0.00    +0.000 N 
ATOM     26  H   UNL     1      19.055  -4.963  35.363  0.00  0.00    +0.000 HD
ATOM     27  H   UNL     1      18.565  -6.528  35.322  0.00  0.00    +0.000 HD
BRANCH  25  28
ATOM     28  C   UNL     1      20.545  -6.255  34.615  0.00  0.00    +0.000 C 
BRANCH  28  29
ATOM     29  C   UNL     1      20.067  -6.586  33.198  0.00  0.00    +0.000 C 
BRANCH  29  30
ATOM     30  C   UNL     1      18.828  -5.759  32.840  0.00  0.00    +0.000 C 
BRANCH  30  31
ATOM     31  N   UNL     1      19.200  -4.355  32.537  0.00  0.00    +0.000 N 
ATOM     32  H   UNL     1      19.638  -3.865  33.332  0.00  0.00    +0.000 HD
ATOM     33  H   UNL     1      18.363  -3.798  32.296  0.00  0.00    +0.000 HD
ATOM     34  H   UNL     1      19.836  -4.261  31.731  0.00  0.00    +0.000 HD
ENDBRANCH  30  31
ENDBRANCH  29  30
ENDBRANCH  28  29
ENDBRANCH  25  28
ENDBRANCH  24  25
ENDBRANCH  23  24
ENDBRANCH  22  23
ENDBRANCH   4  22
TORSDOF 14
ENDMDL
MODEL 3
REMARK minimizedAffinity -7.94839334
REMARK minimizedRMSD -1
REMARK  Name = 
REMARK  15 active torsions:
REMARK  status: ('A' for Active; 'I' for Inactive)
REMARK    1  A    between atoms: C_1  and  C_2
REMARK    2  A    between atoms: C_2  and  O_3
REMARK    3  A    between atoms: O_3  and  C_4
REMARK    4  A    between atoms: C_4  and  C_6
REMARK    5  A    between atoms: C_10  and  N_11
REMARK    6  A    between atoms: C_12  and  C_14
REMARK    7  A    between atoms: C_14  and  C_15
REMARK    8  A    between atoms: C_18  and  O_19
REMARK    9  A    between atoms: O_19  and  C_20
REMARK   10  A    between atoms: C_20  and  C_21
REMARK   11  A    between atoms: C_21  and  N_22
REMARK   12  A    between atoms: N_22  and  C_23
REMARK   13  A    between atoms: C_23  and  C_24
REMARK   14  A    between atoms: C_24  and  C_25
REMARK   15  A    between atoms: C_25  and  N_26
REMARK                            x       y       z     vdW  Elec       q    Type
REMARK                         _______ _______ _______ _____ _____    ______ ____
ROOT
ATOM      1  C   UNL     1      29.184  -4.178  43.945  0.00  0.00    +0.000 A 
ATOM      2  C   UNL     1      29.335  -5.413  44.579  0.00  0.00    +0.000 A 
ATOM      3  C   UNL     1      29.522  -5.491  45.970  0.00  0.00    +0.000 A 
ATOM      4  C   UNL     1      29.507  -4.325  46.749  0.00  0.00    +0.000 A 
ATOM      5  C   UNL     1      29.318  -3.099  46.126  0.00  0.00    +0.000 A 
ATOM      6  C   UNL     1      29.153  -3.017  44.732  0.00  0.00    +0.000 A 
ENDROOT
BRANCH   1   7
ATOM      7  C   UNL     1      29.045  -4.099  42.444  0.00  0.00    +0.000 C 
BRANCH   7   9
ATOM      8  N   UNL     1      27.723  -5.654  41.107  0.00  0.00    +0.000 N 
ATOM      9  C   UNL     1      27.674  -4.529  41.926  0.00  0.00    +0.000 C 
ATOM     10  O   UNL     1      26.647  -3.944  42.267  0.00  0.00    +0.000 OA
ATOM     11  H   UNL     1      28.478  -6.308  41.269  0.00  0.00    +0.000 HD
BRANCH   8  16
ATOM     12  C   UNL     1      25.989  -7.460  40.743  0.00  0.00    +0.000 A 
ATOM     13  C   UNL     1      24.771  -7.541  39.978  0.00  0.00    +0.000 A 
ATOM     14  C   UNL     1      24.459  -6.356  39.348  0.00  0.00    +0.000 A 
ATOM     15  S   UNL     1      25.595  -5.130  39.715  0.00  0.00    +0.000 S 
ATOM     16  C   UNL     1      26.552  -6.205  40.620  0.00  0.00    +0.000 A 
BRANCH  12  17
ATOM     17  C   UNL     1      26.537  -8.526  41.563  0.00  0.00    +0.000 C 
ATOM     18  O   UNL     1      26.735  -9.673  41.164  0.00  0.00    +0.000 OA
BRANCH  17  19
ATOM     19  O   UNL     1      26.760  -8.109  42.841  0.00  0.00    +0.000 OA
BRANCH  19  21
ATOM     20  C   UNL     1      27.509  -8.794  44.996  0.00  0.00    +0.000 C 
ATOM     21  C   UNL     1      27.811  -8.810  43.508  0.00  0.00    +0.000 C 
ENDBRANCH  19  21
ENDBRANCH  17  19
ENDBRANCH  12  17
ENDBRANCH   8  16
ENDBRANCH   7   9
ENDBRANCH   1   7
BRANCH   4  22
ATOM     22  O   UNL     1      29.655  -4.282  48.120  0.00  0.00    +0.000 OA
BRANCH  22  23
ATOM     23  C   UNL     1      28.869  -3.287  48.785  0.00  0.00    +0.000 C 
BRANCH  23  24
ATOM     24  C   UNL     1      29.808  -2.440  49.637  0.00  0.00    +0.000 C 
BRANCH  24  25
ATOM     25  N   UNL     1      29.319  -1.003  49.669  0.00  0.00    +0.000 N 
ATOM     26  H   UNL     1      28.371  -0.980  49.265  0.00  0.00    +0.000 HD
ATOM     27  H   UNL     1      29.913  -0.491  48.992  0.00  0.00    +0.000 HD
BRANCH  25  28
ATOM     28  C   UNL     1      29.358  -0.404  51.036  0.00  0.00    +0.000 C 
BRANCH  28  29
ATOM     29  C   UNL     1      30.796  -0.330  51.559  0.00  0.00    +0.000 C 
BRANCH  29  30
ATOM     30  C   UNL     1      30.947   0.822  52.559  0.00  0.00    +0.000 C 
BRANCH  30  31
ATOM     31  N   UNL     1      29.650   1.122  53.215  0.00  0.00    +0.000 N 
ATOM     32  H   UNL     1      28.916   1.424  52.557  0.00  0.00    +0.000 HD
ATOM     33  H   UNL     1      29.753   1.900  53.889  0.00  0.00    +0.000 HD
ATOM     34  H   UNL     1      29.270   0.334  53.759  0.00  0.00    +0.000 HD
ENDBRANCH  30  31
ENDBRANCH  29  30
ENDBRANCH  28  29
ENDBRANCH  25  28
ENDBRANCH  24  25
ENDBRANCH  23  24
ENDBRANCH  22  23
ENDBRANCH   4  22
TORSDOF 14
ENDMDL
MODEL 4
REMARK minimizedAffinity -7.76627302
REMARK minimizedRMSD -1
REMARK  Name = 
REMARK  15 active torsions:
REMARK  status: ('A' for Active; 'I' for Inactive)
REMARK    1  A    between atoms: C_1  and  C_2
REMARK    2  A    between atoms: C_2  and  O_3
REMARK    3  A    between atoms: O_3  and  C_4
REMARK    4  A    between atoms: C_4  and  C_6
REMARK    5  A    between atoms: C_10  and  N_11
REMARK    6  A    between atoms: C_12  and  C_14
REMARK    7  A    between atoms: C_14  and  C_15
REMARK    8  A    between atoms: C_18  and  O_19
REMARK    9  A    between atoms: O_19  and  C_20
REMARK   10  A    between atoms: C_20  and  C_21
REMARK   11  A    between atoms: C_21  and  N_22
REMARK   12  A    between atoms: N_22  and  C_23
REMARK   13  A    between atoms: C_23  and  C_24
REMARK   14  A    between atoms: C_24  and  C_25
REMARK   15  A    between atoms: C_25  and  N_26
REMARK                            x       y       z     vdW  Elec       q    Type
REMARK                         _______ _______ _______ _____ _____    ______ ____
ROOT
ATOM      1  C   UNL     1      23.792  -6.348  39.281  0.00  0.00    +0.000 A 
ATOM      2  C   UNL     1      24.620  -5.230  39.162  0.00  0.00    +0.000 A 
ATOM      3  C   UNL     1      25.885  -5.201  39.775  0.00  0.00    +0.000 A 
ATOM      4  C   UNL     1      26.355  -6.322  40.473  0.00  0.00    +0.000 A 
ATOM      5  C   UNL     1      25.551  -7.450  40.560  0.00  0.00    +0.000 A 
ATOM      6  C   UNL     1      24.276  -7.473  39.968  0.00  0.00    +0.000 A 
ENDROOT
BRANCH   1   7
ATOM      7  C   UNL     1      22.411  -6.348  38.673  0.00  0.00    +0.000 C 
BRANCH   7   9
ATOM      8  N   UNL     1      22.742  -6.611  36.270  0.00  0.00    +0.000 N 
ATOM      9  C   UNL     1      22.349  -5.732  37.277  0.00  0.00    +0.000 C 
ATOM     10  O   UNL     1      21.935  -4.588  37.098  0.00  0.00    +0.000 OA
ATOM     11  H   UNL     1      22.601  -7.598  36.440  0.00  0.00    +0.000 HD
BRANCH   8  16
ATOM     12  C   UNL     1      21.645  -6.237  34.021  0.00  0.00    +0.000 A 
ATOM     13  C   UNL     1      22.115  -5.771  32.742  0.00  0.00    +0.000 A 
ATOM     14  C   UNL     1      23.441  -5.400  32.765  0.00  0.00    +0.000 A 
ATOM     15  S   UNL     1      24.111  -5.558  34.332  0.00  0.00    +0.000 S 
ATOM     16  C   UNL     1      22.670  -6.219  34.945  0.00  0.00    +0.000 A 
BRANCH  12  17
ATOM     17  C   UNL     1      20.281  -6.634  34.320  0.00  0.00    +0.000 C 
ATOM     18  O   UNL     1      19.761  -6.539  35.431  0.00  0.00    +0.000 OA
BRANCH  17  19
ATOM     19  O   UNL     1      19.665  -7.168  33.228  0.00  0.00    +0.000 OA
BRANCH  19  21
ATOM     20  C   UNL     1      20.517  -8.957  31.905  0.00  0.00    +0.000 C 
ATOM     21  C   UNL     1      19.736  -8.593  33.156  0.00  0.00    +0.000 C 
ENDBRANCH  19  21
ENDBRANCH  17  19
ENDBRANCH  12  17
ENDBRANCH   8  16
ENDBRANCH   7   9
ENDBRANCH   1   7
BRANCH   4  22
ATOM     22  O   UNL     1      27.585  -6.417  41.091  0.00  0.00    +0.000 OA
BRANCH  22  23
ATOM     23  C   UNL     1      27.815  -5.465  42.136  0.00  0.00    +0.000 C 
BRANCH  23  24
ATOM     24  C   UNL     1      27.731  -6.201  43.468  0.00  0.00    +0.000 C 
BRANCH  24  25
ATOM     25  N   UNL     1      28.398  -7.560  43.349  0.00  0.00    +0.000 N 
ATOM     26  H   UNL     1      29.287  -7.524  43.872  0.00  0.00    +0.000 HD
ATOM     27  H   UNL     1      28.675  -7.649  42.355  0.00  0.00    +0.000 HD
BRANCH  25  28
ATOM     28  C   UNL     1      27.526  -8.681  43.806  0.00  0.00    +0.000 C 
BRANCH  28  29
ATOM     29  C   UNL     1      27.684  -8.918  45.311  0.00  0.00    +0.000 C 
BRANCH  29  30
ATOM     30  C   UNL     1      28.477 -10.203  45.574  0.00  0.00    +0.000 C 
BRANCH  30  31
ATOM     31  N   UNL     1      27.782 -11.056  46.570  0.00  0.00    +0.000 N 
ATOM     32  H   UNL     1      27.673 -10.607  47.491  0.00  0.00    +0.000 HD
ATOM     33  H   UNL     1      28.318 -11.923  46.746  0.00  0.00    +0.000 HD
ATOM     34  H   UNL     1      26.847 -11.367  46.267  0.00  0.00    +0.000 HD
ENDBRANCH  30  31
ENDBRANCH  29  30
ENDBRANCH  28  29
ENDBRANCH  25  28
ENDBRANCH  24  25
ENDBRANCH  23  24
ENDBRANCH  22  23
ENDBRANCH   4  22
TORSDOF 14
ENDMDL
MODEL 5
REMARK minimizedAffinity -7.4543786
REMARK minimizedRMSD -1
REMARK  Name = 
REMARK  15 active torsions:
REMARK  status: ('A' for Active; 'I' for Inactive)
REMARK    1  A    between atoms: C_1  and  C_2
REMARK    2  A    between atoms: C_2  and  O_3
REMARK    3  A    between atoms: O_3  and  C_4
REMARK    4  A    between atoms: C_4  and  C_6
REMARK    5  A    between atoms: C_10  and  N_11
REMARK    6  A    between atoms: C_12  and  C_14
REMARK    7  A    between atoms: C_14  and  C_15
REMARK    8  A    between atoms: C_18  and  O_19
REMARK    9  A    between atoms: O_19  and  C_20
REMARK   10  A    between atoms: C_20  and  C_21
REMARK   11  A    between atoms: C_21  and  N_22
REMARK   12  A    between atoms: N_22  and  C_23
REMARK   13  A    between atoms: C_23  and  C_24
REMARK   14  A    between atoms: C_24  and  C_25
REMARK   15  A    between atoms: C_25  and  N_26
REMARK                            x       y       z     vdW  Elec       q    Type
REMARK                         _______ _______ _______ _____ _____    ______ ____
ROOT
ATOM      1  C   UNL     1      29.551  -4.484  46.454  0.00  0.00    +0.000 A 
ATOM      2  C   UNL     1      29.435  -4.472  47.846  0.00  0.00    +0.000 A 
ATOM      3  C   UNL     1      29.518  -3.267  48.565  0.00  0.00    +0.000 A 
ATOM      4  C   UNL     1      29.666  -2.049  47.886  0.00  0.00    +0.000 A 
ATOM      5  C   UNL     1      29.742  -2.055  46.500  0.00  0.00    +0.000 A 
ATOM      6  C   UNL     1      29.682  -3.261  45.779  0.00  0.00    +0.000 A 
ENDROOT
BRANCH   1   7
ATOM      7  C   UNL     1      29.523  -5.788  45.694  0.00  0.00    +0.000 C 
BRANCH   7   9
ATOM      8  N   UNL     1      27.791  -5.951  43.982  0.00  0.00    +0.000 N 
ATOM      9  C   UNL     1      29.126  -5.640  44.226  0.00  0.00    +0.000 C 
ATOM     10  O   UNL     1      29.923  -5.229  43.384  0.00  0.00    +0.000 OA
ATOM     11  H   UNL     1      27.139  -5.809  44.743  0.00  0.00    +0.000 HD
BRANCH   8  16
ATOM     12  C   UNL     1      26.845  -6.699  41.758  0.00  0.00    +0.000 A 
ATOM     13  C   UNL     1      26.437  -6.011  40.560  0.00  0.00    +0.000 A 
ATOM     14  C   UNL     1      26.537  -4.642  40.672  0.00  0.00    +0.000 A 
ATOM     15  S   UNL     1      27.069  -4.176  42.231  0.00  0.00    +0.000 S 
ATOM     16  C   UNL     1      27.266  -5.795  42.712  0.00  0.00    +0.000 A 
BRANCH  12  17
ATOM     17  C   UNL     1      26.789  -8.136  41.960  0.00  0.00    +0.000 C 
ATOM     18  O   UNL     1      26.570  -8.952  41.066  0.00  0.00    +0.000 OA
BRANCH  17  19
ATOM     19  O   UNL     1      26.963  -8.464  43.271  0.00  0.00    +0.000 OA
BRANCH  19  21
ATOM     20  C   UNL     1      28.229  -9.486  45.011  0.00  0.00    +0.000 C 
ATOM     21  C   UNL     1      28.040  -9.371  43.509  0.00  0.00    +0.000 C 
ENDBRANCH  19  21
ENDBRANCH  17  19
ENDBRANCH  12  17
ENDBRANCH   8  16
ENDBRANCH   7   9
ENDBRANCH   1   7
BRANCH   4  22
ATOM     22  O   UNL     1      29.734  -0.807  48.482  0.00  0.00    +0.000 OA
BRANCH  22  23
ATOM     23  C   UNL     1      30.875  -0.599  49.323  0.00  0.00    +0.000 C 
BRANCH  23  24
ATOM     24  C   UNL     1      30.389  -0.542  50.767  0.00  0.00    +0.000 C 
BRANCH  24  25
ATOM     25  N   UNL     1      28.962  -0.025  50.810  0.00  0.00    +0.000 N 
ATOM     26  H   UNL     1      28.329  -0.827  50.672  0.00  0.00    +0.000 HD
ATOM     27  H   UNL     1      28.850   0.556  49.960  0.00  0.00    +0.000 HD
BRANCH  25  28
ATOM     28  C   UNL     1      28.651   0.724  52.064  0.00  0.00    +0.000 C 
BRANCH  28  29
ATOM     29  C   UNL     1      29.716   1.789  52.342  0.00  0.00    +0.000 C 
BRANCH  29  30
ATOM     30  C   UNL     1      29.134   2.925  53.189  0.00  0.00    +0.000 C 
BRANCH  30  31
ATOM     31  N   UNL     1      27.998   2.439  54.012  0.00  0.00    +0.000 N 
ATOM     32  H   UNL     1      27.210   2.080  53.454  0.00  0.00    +0.000 HD
ATOM     33  H   UNL     1      27.605   3.207  54.583  0.00  0.00    +0.000 HD
ATOM     34  H   UNL     1      28.261   1.703  54.684  0.00  0.00    +0.000 HD
ENDBRANCH  30  31
ENDBRANCH  29  30
ENDBRANCH  28  29
ENDBRANCH  25  28
ENDBRANCH  24  25
ENDBRANCH  23  24
ENDBRANCH  22  23
ENDBRANCH   4  22
TORSDOF 14
ENDMDL
