REMARK  Name = 
REMARK  11 active torsions:
REMARK  status: ('A' for Active; 'I' for Inactive)
REMARK    1  A    between atoms: C_1  and  C_2
REMARK    2  A    between atoms: C_2  and  O_3
REMARK    3  A    between atoms: O_3  and  C_4
REMARK    4  A    between atoms: C_4  and  C_6
REMARK    5  A    between atoms: C_10  and  N_11
REMARK    6  A    between atoms: C_12  and  C_14
REMARK    7  A    between atoms: C_14  and  C_15
REMARK    8  A    between atoms: C_18  and  O_19
REMARK    9  A    between atoms: O_19  and  C_20
REMARK   10  A    between atoms: C_20  and  C_21
REMARK   11  A    between atoms: C_21  and  N_22
REMARK                            x       y       z     vdW  Elec       q    Type
REMARK                         _______ _______ _______ _____ _____    ______ ____
ROOT
ATOM      1  C   UNL     1       6.245  -0.331  -2.842  0.00  0.00    +0.000 A 
ATOM      2  C   UNL     1       7.108  -1.431  -2.771  0.00  0.00    +0.000 A 
ATOM      3  C   UNL     1       6.635  -2.728  -2.997  0.00  0.00    +0.000 A 
ATOM      4  C   UNL     1       5.292  -2.960  -3.297  0.00  0.00    +0.000 A 
ATOM      5  C   UNL     1       4.426  -1.865  -3.373  0.00  0.00    +0.000 A 
ATOM      6  C   UNL     1       4.899  -0.559  -3.151  0.00  0.00    +0.000 A 
ENDROOT
BRANCH   4   7
ATOM      7  O   UNL     1       4.740  -4.200  -3.546  0.00  0.00    +0.000 OA
BRANCH   7   8
ATOM      8  C   UNL     1       5.606  -5.315  -3.308  0.00  0.00    +0.000 C 
BRANCH   8   9
ATOM      9  C   UNL     1       4.868  -6.656  -3.503  0.00  0.00    +0.000 C 
BRANCH   9  10
ATOM     10  N   UNL     1       3.790  -6.922  -2.431  0.00  0.00    +0.000 N 
ATOM     11  C   UNL     1       3.223  -8.349  -2.459  0.00  0.00    +0.000 C 
ATOM     12  C   UNL     1       2.145  -8.564  -3.564  0.00  0.00    +0.000 C 
ATOM     13  N   UNL     1       1.162  -7.421  -3.681  0.00  0.00    +0.000 N 
ATOM     14  C   UNL     1       1.767  -6.033  -3.635  0.00  0.00    +0.000 C 
ATOM     15  C   UNL     1       2.651  -5.904  -2.380  0.00  0.00    +0.000 C 
ATOM     16  H   UNL     1       4.294  -6.833  -1.531  0.00  0.00    +0.000 HD
ATOM     17  H   UNL     1       0.425  -7.504  -2.961  0.00  0.00    +0.000 HD
ATOM     18  H   UNL     1       0.642  -7.523  -4.572  0.00  0.00    +0.000 HD
ENDBRANCH   9  10
ENDBRANCH   8   9
ENDBRANCH   7   8
ENDBRANCH   4   7
BRANCH   1  19
ATOM     19  C   UNL     1       6.785   1.075  -2.671  0.00  0.00    +0.000 C 
BRANCH  19  21
ATOM     20  N   UNL     1       7.327   3.091  -3.911  0.00  0.00    +0.000 N 
ATOM     21  C   UNL     1       7.267   1.700  -3.971  0.00  0.00    +0.000 C 
ATOM     22  O   UNL     1       7.643   1.024  -4.927  0.00  0.00    +0.000 OA
ATOM     23  H   UNL     1       7.557   3.508  -3.018  0.00  0.00    +0.000 HD
BRANCH  20  28
ATOM     24  C   UNL     1       7.346   3.723  -6.361  0.00  0.00    +0.000 A 
ATOM     25  C   UNL     1       8.214   4.571  -7.143  0.00  0.00    +0.000 A 
ATOM     26  C   UNL     1       9.100   5.291  -6.372  0.00  0.00    +0.000 A 
ATOM     27  S   UNL     1       8.853   5.011  -4.704  0.00  0.00    +0.000 S 
ATOM     28  C   UNL     1       7.704   3.800  -5.029  0.00  0.00    +0.000 A 
BRANCH  24  29
ATOM     29  C   UNL     1       6.262   2.900  -6.892  0.00  0.00    +0.000 C 
ATOM     30  O   UNL     1       5.426   2.317  -6.209  0.00  0.00    +0.000 OA
BRANCH  29  31
ATOM     31  O   UNL     1       6.294   2.859  -8.256  0.00  0.00    +0.000 OA
BRANCH  31  33
ATOM     32  C   UNL     1       6.707   0.645  -8.990  0.00  0.00    +0.000 C 
ATOM     33  C   UNL     1       5.654   1.729  -8.853  0.00  0.00    +0.000 C 
ENDBRANCH  31  33
ENDBRANCH  29  31
ENDBRANCH  24  29
ENDBRANCH  20  28
ENDBRANCH  19  21
ENDBRANCH   1  19
TORSDOF 10
