REMARK  Name = 
REMARK  10 active torsions:
REMARK  status: ('A' for Active; 'I' for Inactive)
REMARK    1  A    between atoms: C_1  and  C_2
REMARK    2  A    between atoms: C_2  and  O_3
REMARK    3  A    between atoms: O_3  and  C_4
REMARK    4  A    between atoms: C_4  and  C_6
REMARK    5  A    between atoms: C_10  and  N_11
REMARK    6  A    between atoms: C_12  and  C_14
REMARK    7  A    between atoms: C_14  and  N_15
REMARK    8  A    between atoms: N_15  and  C_16
REMARK    9  A    between atoms: N_15  and  C_17
REMARK   10  A    between atoms: N_15  and  C_18
REMARK                            x       y       z     vdW  Elec       q    Type
REMARK                         _______ _______ _______ _____ _____    ______ ____
ROOT
ATOM      1  C   UNL     1       5.220  -2.977   0.259  0.00  0.00    +0.000 A 
ATOM      2  C   UNL     1       4.431  -4.167   0.053  0.00  0.00    +0.000 A 
ATOM      3  C   UNL     1       4.481  -5.039   1.117  0.00  0.00    +0.000 A 
ATOM      4  S   UNL     1       5.542  -4.480   2.334  0.00  0.00    +0.000 S 
ATOM      5  C   UNL     1       5.804  -3.012   1.511  0.00  0.00    +0.000 A 
ENDROOT
BRANCH   5   6
ATOM      6  N   UNL     1       6.548  -2.102   2.247  0.00  0.00    +0.000 N 
ATOM      7  C   UNL     1       6.026  -0.833   2.452  0.00  0.00    +0.000 C 
ATOM      8  O   UNL     1       4.928  -0.451   2.040  0.00  0.00    +0.000 OA
ATOM      9  H   UNL     1       7.088  -2.517   3.001  0.00  0.00    +0.000 HD
BRANCH   7  10
ATOM     10  C   UNL     1       6.917   0.125   3.269  0.00  0.00    +0.000 C 
BRANCH  10  11
ATOM     11  N   UNL     1       7.303   1.456   2.543  0.00  0.00    +0.000 N 
ATOM     12  C   UNL     1       8.127   1.132   1.307  0.00  0.00    +0.000 C 
ATOM     13  C   UNL     1       6.047   2.222   2.122  0.00  0.00    +0.000 C 
ATOM     14  C   UNL     1       8.115   2.343   3.474  0.00  0.00    +0.000 C 
ENDBRANCH  10  11
ENDBRANCH   7  10
ENDBRANCH   5   6
BRANCH   1  15
ATOM     15  C   UNL     1       5.368  -1.899  -0.719  0.00  0.00    +0.000 C 
ATOM     16  O   UNL     1       6.065  -0.905  -0.555  0.00  0.00    +0.000 OA
BRANCH  15  17
ATOM     17  O   UNL     1       4.608  -2.129  -1.828  0.00  0.00    +0.000 OA
BRANCH  17  19
ATOM     18  C   UNL     1       2.950  -0.433  -1.929  0.00  0.00    +0.000 C 
ATOM     19  C   UNL     1       4.225  -0.966  -2.568  0.00  0.00    +0.000 C 
ENDBRANCH  17  19
ENDBRANCH  15  17
ENDBRANCH   1  15
TORSDOF 6
