MODEL 1
REMARK minimizedAffinity -5.69151354
REMARK minimizedRMSD -1
REMARK  Name = 
REMARK  10 active torsions:
REMARK  status: ('A' for Active; 'I' for Inactive)
REMARK    1  A    between atoms: C_1  and  C_2
REMARK    2  A    between atoms: C_2  and  O_3
REMARK    3  A    between atoms: O_3  and  C_4
REMARK    4  A    between atoms: C_4  and  C_6
REMARK    5  A    between atoms: C_10  and  N_11
REMARK    6  A    between atoms: C_12  and  C_14
REMARK    7  A    between atoms: C_14  and  N_15
REMARK    8  A    between atoms: N_15  and  C_16
REMARK    9  A    between atoms: N_15  and  C_17
REMARK   10  A    between atoms: N_15  and  C_18
REMARK                            x       y       z     vdW  Elec       q    Type
REMARK                         _______ _______ _______ _____ _____    ______ ____
ROOT
ATOM      1  C   UNL     1      27.673  -7.003  42.643  0.00  0.00    +0.000 A 
ATOM      2  C   UNL     1      27.543  -6.608  41.262  0.00  0.00    +0.000 A 
ATOM      3  C   UNL     1      27.546  -5.243  41.088  0.00  0.00    +0.000 A 
ATOM      4  S   UNL     1      27.617  -4.422  42.585  0.00  0.00    +0.000 S 
ATOM      5  C   UNL     1      27.802  -5.883  43.442  0.00  0.00    +0.000 A 
ENDROOT
BRANCH   5   6
ATOM      6  N   UNL     1      28.063  -5.692  44.790  0.00  0.00    +0.000 N 
ATOM      7  C   UNL     1      29.384  -5.571  45.198  0.00  0.00    +0.000 C 
ATOM      8  O   UNL     1      30.357  -5.603  44.441  0.00  0.00    +0.000 OA
ATOM      9  H   UNL     1      27.367  -5.132  45.275  0.00  0.00    +0.000 HD
BRANCH   7  10
ATOM     10  C   UNL     1      29.593  -5.373  46.713  0.00  0.00    +0.000 C 
BRANCH  10  11
ATOM     11  N   UNL     1      29.913  -3.907  47.154  0.00  0.00    +0.000 N 
ATOM     12  C   UNL     1      31.403  -3.781  47.432  0.00  0.00    +0.000 C 
ATOM     13  C   UNL     1      29.523  -2.917  46.054  0.00  0.00    +0.000 C 
ATOM     14  C   UNL     1      29.133  -3.557  48.412  0.00  0.00    +0.000 C 
ENDBRANCH  10  11
ENDBRANCH   7  10
ENDBRANCH   5   6
BRANCH   1  15
ATOM     15  C   UNL     1      27.671  -8.388  43.115  0.00  0.00    +0.000 C 
ATOM     16  O   UNL     1      27.913  -9.361  42.411  0.00  0.00    +0.000 OA
BRANCH  15  17
ATOM     17  O   UNL     1      27.337  -8.461  44.436  0.00  0.00    +0.000 OA
BRANCH  17  19
ATOM     18  C   UNL     1      27.280 -10.163  46.089  0.00  0.00    +0.000 C 
ATOM     19  C   UNL     1      28.187  -9.278  45.245  0.00  0.00    +0.000 C 
ENDBRANCH  17  19
ENDBRANCH  15  17
ENDBRANCH   1  15
TORSDOF 6
ENDMDL
MODEL 2
REMARK minimizedAffinity -5.4892664
REMARK minimizedRMSD -1
REMARK  Name = 
REMARK  10 active torsions:
REMARK  status: ('A' for Active; 'I' for Inactive)
REMARK    1  A    between atoms: C_1  and  C_2
REMARK    2  A    between atoms: C_2  and  O_3
REMARK    3  A    between atoms: O_3  and  C_4
REMARK    4  A    between atoms: C_4  and  C_6
REMARK    5  A    between atoms: C_10  and  N_11
REMARK    6  A    between atoms: C_12  and  C_14
REMARK    7  A    between atoms: C_14  and  N_15
REMARK    8  A    between atoms: N_15  and  C_16
REMARK    9  A    between atoms: N_15  and  C_17
REMARK   10  A    between atoms: N_15  and  C_18
REMARK                            x       y       z     vdW  Elec       q    Type
REMARK                         _______ _______ _______ _____ _____    ______ ____
ROOT
ATOM      1  C   UNL     1      28.099  -6.225  44.032  0.00  0.00    +0.000 A 
ATOM      2  C   UNL     1      27.556  -7.358  43.323  0.00  0.00    +0.000 A 
ATOM      3  C   UNL     1      27.663  -8.537  44.026  0.00  0.00    +0.000 A 
ATOM      4  S   UNL     1      28.492  -8.311  45.503  0.00  0.00    +0.000 S 
ATOM      5  C   UNL     1      28.563  -6.625  45.271  0.00  0.00    +0.000 A 
ENDROOT
BRANCH   5   6
ATOM      6  N   UNL     1      29.063  -5.946  46.371  0.00  0.00    +0.000 N 
ATOM      7  C   UNL     1      30.408  -5.606  46.384  0.00  0.00    +0.000 C 
ATOM      8  O   UNL     1      31.202  -5.849  45.472  0.00  0.00    +0.000 OA
ATOM      9  H   UNL     1      28.408  -5.292  46.792  0.00  0.00    +0.000 HD
BRANCH   7  10
ATOM     10  C   UNL     1      30.891  -4.863  47.647  0.00  0.00    +0.000 C 
BRANCH  10  11
ATOM     11  N   UNL     1      30.399  -3.384  47.777  0.00  0.00    +0.000 N 
ATOM     12  C   UNL     1      31.252  -2.661  48.807  0.00  0.00    +0.000 C 
ATOM     13  C   UNL     1      30.513  -2.660  46.434  0.00  0.00    +0.000 C 
ATOM     14  C   UNL     1      28.943  -3.354  48.216  0.00  0.00    +0.000 C 
ENDBRANCH  10  11
ENDBRANCH   7  10
ENDBRANCH   5   6
BRANCH   1  15
ATOM     15  C   UNL     1      28.142  -4.860  43.507  0.00  0.00    +0.000 C 
ATOM     16  O   UNL     1      28.258  -3.855  44.198  0.00  0.00    +0.000 OA
BRANCH  15  17
ATOM     17  O   UNL     1      28.009  -4.847  42.150  0.00  0.00    +0.000 OA
BRANCH  17  19
ATOM     18  C   UNL     1      26.252  -5.153  40.583  0.00  0.00    +0.000 C 
ATOM     19  C   UNL     1      26.820  -4.228  41.650  0.00  0.00    +0.000 C 
ENDBRANCH  17  19
ENDBRANCH  15  17
ENDBRANCH   1  15
TORSDOF 6
ENDMDL
MODEL 3
REMARK minimizedAffinity -5.18653107
REMARK minimizedRMSD -1
REMARK  Name = 
REMARK  10 active torsions:
REMARK  status: ('A' for Active; 'I' for Inactive)
REMARK    1  A    between atoms: C_1  and  C_2
REMARK    2  A    between atoms: C_2  and  O_3
REMARK    3  A    between atoms: O_3  and  C_4
REMARK    4  A    between atoms: C_4  and  C_6
REMARK    5  A    between atoms: C_10  and  N_11
REMARK    6  A    between atoms: C_12  and  C_14
REMARK    7  A    between atoms: C_14  and  N_15
REMARK    8  A    between atoms: N_15  and  C_16
REMARK    9  A    between atoms: N_15  and  C_17
REMARK   10  A    between atoms: N_15  and  C_18
REMARK                            x       y       z     vdW  Elec       q    Type
REMARK                         _______ _______ _______ _____ _____    ______ ____
ROOT
ATOM      1  C   UNL     1      26.716  -6.755  41.069  0.00  0.00    +0.000 A 
ATOM      2  C   UNL     1      25.825  -7.842  40.746  0.00  0.00    +0.000 A 
ATOM      3  C   UNL     1      26.258  -9.057  41.226  0.00  0.00    +0.000 A 
ATOM      4  S   UNL     1      27.779  -8.919  41.993  0.00  0.00    +0.000 S 
ATOM      5  C   UNL     1      27.776  -7.224  41.821  0.00  0.00    +0.000 A 
ENDROOT
BRANCH   5   6
ATOM      6  N   UNL     1      28.832  -6.610  42.477  0.00  0.00    +0.000 N 
ATOM      7  C   UNL     1      28.568  -5.908  43.644  0.00  0.00    +0.000 C 
ATOM      8  O   UNL     1      27.453  -5.802  44.162  0.00  0.00    +0.000 OA
ATOM      9  H   UNL     1      29.710  -7.117  42.420  0.00  0.00    +0.000 HD
BRANCH   7  10
ATOM     10  C   UNL     1      29.791  -5.243  44.308  0.00  0.00    +0.000 C 
BRANCH  10  11
ATOM     11  N   UNL     1      30.014  -5.613  45.812  0.00  0.00    +0.000 N 
ATOM     12  C   UNL     1      29.321  -6.933  46.112  0.00  0.00    +0.000 C 
ATOM     13  C   UNL     1      31.508  -5.751  46.115  0.00  0.00    +0.000 C 
ATOM     14  C   UNL     1      29.442  -4.526  46.708  0.00  0.00    +0.000 C 
ENDBRANCH  10  11
ENDBRANCH   7  10
ENDBRANCH   5   6
BRANCH   1  15
ATOM     15  C   UNL     1      26.513  -5.365  40.659  0.00  0.00    +0.000 C 
ATOM     16  O   UNL     1      26.770  -4.392  41.358  0.00  0.00    +0.000 OA
BRANCH  15  17
ATOM     17  O   UNL     1      25.974  -5.291  39.409  0.00  0.00    +0.000 OA
BRANCH  17  19
ATOM     18  C   UNL     1      23.977  -5.309  38.126  0.00  0.00    +0.000 C 
ATOM     19  C   UNL     1      24.679  -4.690  39.327  0.00  0.00    +0.000 C 
ENDBRANCH  17  19
ENDBRANCH  15  17
ENDBRANCH   1  15
TORSDOF 6
ENDMDL
MODEL 4
REMARK minimizedAffinity -5.17370272
REMARK minimizedRMSD -1
REMARK  Name = 
REMARK  10 active torsions:
REMARK  status: ('A' for Active; 'I' for Inactive)
REMARK    1  A    between atoms: C_1  and  C_2
REMARK    2  A    between atoms: C_2  and  O_3
REMARK    3  A    between atoms: O_3  and  C_4
REMARK    4  A    between atoms: C_4  and  C_6
REMARK    5  A    between atoms: C_10  and  N_11
REMARK    6  A    between atoms: C_12  and  C_14
REMARK    7  A    between atoms: C_14  and  N_15
REMARK    8  A    between atoms: N_15  and  C_16
REMARK    9  A    between atoms: N_15  and  C_17
REMARK   10  A    between atoms: N_15  and  C_18
REMARK                            x       y       z     vdW  Elec       q    Type
REMARK                         _______ _______ _______ _____ _____    ______ ____
ROOT
ATOM      1  C   UNL     1      25.024  -6.895  40.030  0.00  0.00    +0.000 A 
ATOM      2  C   UNL     1      24.173  -8.060  40.051  0.00  0.00    +0.000 A 
ATOM      3  C   UNL     1      24.761  -9.148  40.656  0.00  0.00    +0.000 A 
ATOM      4  S   UNL     1      26.368  -8.809  41.126  0.00  0.00    +0.000 S 
ATOM      5  C   UNL     1      26.218  -7.175  40.666  0.00  0.00    +0.000 A 
ENDROOT
BRANCH   5   6
ATOM      6  N   UNL     1      27.317  -6.408  41.022  0.00  0.00    +0.000 N 
ATOM      7  C   UNL     1      27.631  -6.287  42.368  0.00  0.00    +0.000 C 
ATOM      8  O   UNL     1      27.012  -6.832  43.285  0.00  0.00    +0.000 OA
ATOM      9  H   UNL     1      28.087  -6.448  40.360  0.00  0.00    +0.000 HD
BRANCH   7  10
ATOM     10  C   UNL     1      28.859  -5.408  42.685  0.00  0.00    +0.000 C 
BRANCH  10  11
ATOM     11  N   UNL     1      28.542  -3.905  42.980  0.00  0.00    +0.000 N 
ATOM     12  C   UNL     1      29.513  -3.027  42.206  0.00  0.00    +0.000 C 
ATOM     13  C   UNL     1      27.111  -3.564  42.556  0.00  0.00    +0.000 C 
ATOM     14  C   UNL     1      28.680  -3.623  44.468  0.00  0.00    +0.000 C 
ENDBRANCH  10  11
ENDBRANCH   7  10
ENDBRANCH   5   6
BRANCH   1  15
ATOM     15  C   UNL     1      24.662  -5.613  39.425  0.00  0.00    +0.000 C 
ATOM     16  O   UNL     1      25.459  -4.720  39.165  0.00  0.00    +0.000 OA
BRANCH  15  17
ATOM     17  O   UNL     1      23.317  -5.528  39.213  0.00  0.00    +0.000 OA
BRANCH  17  19
ATOM     18  C   UNL     1      22.835  -6.255  37.005  0.00  0.00    +0.000 C 
ATOM     19  C   UNL     1      22.924  -5.045  37.925  0.00  0.00    +0.000 C 
ENDBRANCH  17  19
ENDBRANCH  15  17
ENDBRANCH   1  15
TORSDOF 6
ENDMDL
MODEL 5
REMARK minimizedAffinity -5.12176847
REMARK minimizedRMSD -1
REMARK  Name = 
REMARK  10 active torsions:
REMARK  status: ('A' for Active; 'I' for Inactive)
REMARK    1  A    between atoms: C_1  and  C_2
REMARK    2  A    between atoms: C_2  and  O_3
REMARK    3  A    between atoms: O_3  and  C_4
REMARK    4  A    between atoms: C_4  and  C_6
REMARK    5  A    between atoms: C_10  and  N_11
REMARK    6  A    between atoms: C_12  and  C_14
REMARK    7  A    between atoms: C_14  and  N_15
REMARK    8  A    between atoms: N_15  and  C_16
REMARK    9  A    between atoms: N_15  and  C_17
REMARK   10  A    between atoms: N_15  and  C_18
REMARK                            x       y       z     vdW  Elec       q    Type
REMARK                         _______ _______ _______ _____ _____    ______ ____
ROOT
ATOM      1  C   UNL     1      25.800  -8.521  40.968  0.00  0.00    +0.000 A 
ATOM      2  C   UNL     1      26.218  -9.881  40.731  0.00  0.00    +0.000 A 
ATOM      3  C   UNL     1      27.398 -10.202  41.363  0.00  0.00    +0.000 A 
ATOM      4  S   UNL     1      28.060  -8.852  42.173  0.00  0.00    +0.000 S 
ATOM      5  C   UNL     1      26.698  -7.895  41.812  0.00  0.00    +0.000 A 
ENDROOT
BRANCH   5   6
ATOM      6  N   UNL     1      26.721  -6.658  42.439  0.00  0.00    +0.000 N 
ATOM      7  C   UNL     1      27.325  -5.596  41.784  0.00  0.00    +0.000 C 
ATOM      8  O   UNL     1      27.836  -5.661  40.663  0.00  0.00    +0.000 OA
ATOM      9  H   UNL     1      25.897  -6.459  43.000  0.00  0.00    +0.000 HD
BRANCH   7  10
ATOM     10  C   UNL     1      27.322  -4.257  42.550  0.00  0.00    +0.000 C 
BRANCH  10  11
ATOM     11  N   UNL     1      28.692  -3.851  43.186  0.00  0.00    +0.000 N 
ATOM     12  C   UNL     1      28.439  -3.093  44.479  0.00  0.00    +0.000 C 
ATOM     13  C   UNL     1      29.533  -5.093  43.488  0.00  0.00    +0.000 C 
ATOM     14  C   UNL     1      29.472  -2.966  42.226  0.00  0.00    +0.000 C 
ENDBRANCH  10  11
ENDBRANCH   7  10
ENDBRANCH   5   6
BRANCH   1  15
ATOM     15  C   UNL     1      24.601  -7.909  40.396  0.00  0.00    +0.000 C 
ATOM     16  O   UNL     1      23.512  -8.464  40.312  0.00  0.00    +0.000 OA
BRANCH  15  17
ATOM     17  O   UNL     1      24.856  -6.648  39.944  0.00  0.00    +0.000 OA
BRANCH  17  19
ATOM     18  C   UNL     1      24.471  -4.833  38.463  0.00  0.00    +0.000 C 
ATOM     19  C   UNL     1      23.868  -6.090  39.073  0.00  0.00    +0.000 C 
ENDBRANCH  17  19
ENDBRANCH  15  17
ENDBRANCH   1  15
TORSDOF 6
ENDMDL
