REMARK  Name = 
REMARK  9 active torsions:
REMARK  status: ('A' for Active; 'I' for Inactive)
REMARK    1  A    between atoms: N_1  and  C_2
REMARK    2  A    between atoms: N_1  and  C_3
REMARK    3  A    between atoms: N_1  and  C_4
REMARK    4  A    between atoms: C_4  and  C_5
REMARK    5  A    between atoms: C_5  and  O_6
REMARK    6  A    between atoms: O_6  and  C_7
REMARK    7  A    between atoms: C_10  and  C_11
REMARK    8  A    between atoms: C_11  and  C_12
REMARK    9  A    between atoms: C_12  and  O_14
REMARK                            x       y       z     vdW  Elec       q    Type
REMARK                         _______ _______ _______ _____ _____    ______ ____
ROOT
ATOM      1  C   UNL     1       5.099  -1.999  -1.456  0.00  0.00    +0.000 A 
ATOM      2  C   UNL     1       4.743  -2.371  -2.757  0.00  0.00    +0.000 A 
ATOM      3  C   UNL     1       5.436  -3.385  -3.418  0.00  0.00    +0.000 A 
ATOM      4  C   UNL     1       6.494  -4.059  -2.798  0.00  0.00    +0.000 A 
ATOM      5  C   UNL     1       6.852  -3.682  -1.496  0.00  0.00    +0.000 A 
ATOM      6  C   UNL     1       6.158  -2.663  -0.830  0.00  0.00    +0.000 A 
ENDROOT
BRANCH   1   7
ATOM      7  O   UNL     1       4.487  -1.017  -0.716  0.00  0.00    +0.000 OA
BRANCH   7   8
ATOM      8  C   UNL     1       3.373  -0.391  -1.358  0.00  0.00    +0.000 C 
BRANCH   8   9
ATOM      9  C   UNL     1       2.763   0.659  -0.429  0.00  0.00    +0.000 C 
BRANCH   9  10
ATOM     10  N   UNL     1       3.774   1.707   0.011  0.00  0.00    +0.000 N 
ATOM     11  C   UNL     1       4.401   2.478  -1.118  0.00  0.00    +0.000 C 
ATOM     12  C   UNL     1       3.169   2.632   1.031  0.00  0.00    +0.000 C 
ATOM     13  H   UNL     1       4.536   1.183   0.470  0.00  0.00    +0.000 HD
ENDBRANCH   9  10
ENDBRANCH   8   9
ENDBRANCH   7   8
ENDBRANCH   1   7
BRANCH   4  14
ATOM     14  C   UNL     1       7.192  -5.207  -3.492  0.00  0.00    +0.000 C 
BRANCH  14  15
ATOM     15  C   UNL     1       7.907  -4.857  -4.780  0.00  0.00    +0.000 C 
ATOM     16  O   UNL     1       7.942  -3.753  -5.306  0.00  0.00    +0.000 OA
BRANCH  15  17
ATOM     17  O   UNL     1       8.525  -5.933  -5.333  0.00  0.00    +0.000 OA
ATOM     18  H   UNL     1       8.431  -6.767  -4.833  0.00  0.00    +0.000 HD
ENDBRANCH  15  17
ENDBRANCH  14  15
ENDBRANCH   4  14
TORSDOF 7
