MODEL 1
REMARK minimizedAffinity -7.4597187
REMARK minimizedRMSD -1
REMARK  Name = 
REMARK  9 active torsions:
REMARK  status: ('A' for Active; 'I' for Inactive)
REMARK    1  A    between atoms: N_1  and  C_2
REMARK    2  A    between atoms: N_1  and  C_3
REMARK    3  A    between atoms: N_1  and  C_4
REMARK    4  A    between atoms: C_4  and  C_5
REMARK    5  A    between atoms: C_5  and  O_6
REMARK    6  A    between atoms: O_6  and  C_7
REMARK    7  A    between atoms: C_10  and  C_11
REMARK    8  A    between atoms: C_11  and  C_12
REMARK    9  A    between atoms: C_12  and  O_14
REMARK                            x       y       z     vdW  Elec       q    Type
REMARK                         _______ _______ _______ _____ _____    ______ ____
ROOT
ATOM      1  C   UNL     1      26.273  -5.958  40.857  0.00  0.00    +0.000 A 
ATOM      2  C   UNL     1      25.614  -7.188  40.761  0.00  0.00    +0.000 A 
ATOM      3  C   UNL     1      24.577  -7.366  39.845  0.00  0.00    +0.000 A 
ATOM      4  C   UNL     1      24.176  -6.327  38.998  0.00  0.00    +0.000 A 
ATOM      5  C   UNL     1      24.835  -5.094  39.098  0.00  0.00    +0.000 A 
ATOM      6  C   UNL     1      25.876  -4.912  40.018  0.00  0.00    +0.000 A 
ENDROOT
BRANCH   1   7
ATOM      7  O   UNL     1      27.302  -5.675  41.721  0.00  0.00    +0.000 OA
BRANCH   7   8
ATOM      8  C   UNL     1      28.095  -6.804  42.098  0.00  0.00    +0.000 C 
BRANCH   8   9
ATOM      9  C   UNL     1      27.799  -7.182  43.550  0.00  0.00    +0.000 C 
BRANCH   9  10
ATOM     10  N   UNL     1      27.429  -8.649  43.707  0.00  0.00    +0.000 N 
ATOM     11  C   UNL     1      28.060  -9.562  42.692  0.00  0.00    +0.000 C 
ATOM     12  C   UNL     1      27.708  -9.119  45.108  0.00  0.00    +0.000 C 
ATOM     13  H   UNL     1      26.409  -8.697  43.554  0.00  0.00    +0.000 HD
ENDBRANCH   9  10
ENDBRANCH   8   9
ENDBRANCH   7   8
ENDBRANCH   1   7
BRANCH   4  14
ATOM     14  C   UNL     1      23.102  -6.549  37.957  0.00  0.00    +0.000 C 
BRANCH  14  15
ATOM     15  C   UNL     1      21.801  -5.810  38.189  0.00  0.00    +0.000 C 
ATOM     16  O   UNL     1      21.239  -5.076  37.388  0.00  0.00    +0.000 OA
BRANCH  15  17
ATOM     17  O   UNL     1      21.297  -6.034  39.430  0.00  0.00    +0.000 OA
ATOM     18  H   UNL     1      21.828  -6.633  39.991  0.00  0.00    +0.000 HD
ENDBRANCH  15  17
ENDBRANCH  14  15
ENDBRANCH   4  14
TORSDOF 7
ENDMDL
MODEL 2
REMARK minimizedAffinity -7.25985813
REMARK minimizedRMSD -1
REMARK  Name = 
REMARK  9 active torsions:
REMARK  status: ('A' for Active; 'I' for Inactive)
REMARK    1  A    between atoms: N_1  and  C_2
REMARK    2  A    between atoms: N_1  and  C_3
REMARK    3  A    between atoms: N_1  and  C_4
REMARK    4  A    between atoms: C_4  and  C_5
REMARK    5  A    between atoms: C_5  and  O_6
REMARK    6  A    between atoms: O_6  and  C_7
REMARK    7  A    between atoms: C_10  and  C_11
REMARK    8  A    between atoms: C_11  and  C_12
REMARK    9  A    between atoms: C_12  and  O_14
REMARK                            x       y       z     vdW  Elec       q    Type
REMARK                         _______ _______ _______ _____ _____    ______ ____
ROOT
ATOM      1  C   UNL     1      26.250  -6.527  41.024  0.00  0.00    +0.000 A 
ATOM      2  C   UNL     1      25.465  -7.662  40.792  0.00  0.00    +0.000 A 
ATOM      3  C   UNL     1      24.456  -7.641  39.829  0.00  0.00    +0.000 A 
ATOM      4  C   UNL     1      24.210  -6.493  39.068  0.00  0.00    +0.000 A 
ATOM      5  C   UNL     1      24.995  -5.355  39.304  0.00  0.00    +0.000 A 
ATOM      6  C   UNL     1      26.008  -5.374  40.272  0.00  0.00    +0.000 A 
ENDROOT
BRANCH   1   7
ATOM      7  O   UNL     1      27.265  -6.439  41.945  0.00  0.00    +0.000 OA
BRANCH   7   8
ATOM      8  C   UNL     1      27.450  -5.137  42.508  0.00  0.00    +0.000 C 
BRANCH   8   9
ATOM      9  C   UNL     1      28.780  -5.084  43.261  0.00  0.00    +0.000 C 
BRANCH   9  10
ATOM     10  N   UNL     1      28.594  -4.903  44.760  0.00  0.00    +0.000 N 
ATOM     11  C   UNL     1      29.067  -6.065  45.589  0.00  0.00    +0.000 C 
ATOM     12  C   UNL     1      29.222  -3.616  45.220  0.00  0.00    +0.000 C 
ATOM     13  H   UNL     1      27.575  -4.830  44.908  0.00  0.00    +0.000 HD
ENDBRANCH   9  10
ENDBRANCH   8   9
ENDBRANCH   7   8
ENDBRANCH   1   7
BRANCH   4  14
ATOM     14  C   UNL     1      23.165  -6.500  37.974  0.00  0.00    +0.000 C 
BRANCH  14  15
ATOM     15  C   UNL     1      21.891  -5.741  38.280  0.00  0.00    +0.000 C 
ATOM     16  O   UNL     1      21.334  -4.942  37.539  0.00  0.00    +0.000 OA
BRANCH  15  17
ATOM     17  O   UNL     1      21.405  -6.031  39.515  0.00  0.00    +0.000 OA
ATOM     18  H   UNL     1      21.928  -6.679  40.025  0.00  0.00    +0.000 HD
ENDBRANCH  15  17
ENDBRANCH  14  15
ENDBRANCH   4  14
TORSDOF 7
ENDMDL
MODEL 3
REMARK minimizedAffinity -7.22913504
REMARK minimizedRMSD -1
REMARK  Name = 
REMARK  9 active torsions:
REMARK  status: ('A' for Active; 'I' for Inactive)
REMARK    1  A    between atoms: N_1  and  C_2
REMARK    2  A    between atoms: N_1  and  C_3
REMARK    3  A    between atoms: N_1  and  C_4
REMARK    4  A    between atoms: C_4  and  C_5
REMARK    5  A    between atoms: C_5  and  O_6
REMARK    6  A    between atoms: O_6  and  C_7
REMARK    7  A    between atoms: C_10  and  C_11
REMARK    8  A    between atoms: C_11  and  C_12
REMARK    9  A    between atoms: C_12  and  O_14
REMARK                            x       y       z     vdW  Elec       q    Type
REMARK                         _______ _______ _______ _____ _____    ______ ____
ROOT
ATOM      1  C   UNL     1      26.472  -6.653  40.771  0.00  0.00    +0.000 A 
ATOM      2  C   UNL     1      26.114  -5.477  40.102  0.00  0.00    +0.000 A 
ATOM      3  C   UNL     1      24.899  -5.390  39.424  0.00  0.00    +0.000 A 
ATOM      4  C   UNL     1      24.006  -6.468  39.402  0.00  0.00    +0.000 A 
ATOM      5  C   UNL     1      24.368  -7.646  40.069  0.00  0.00    +0.000 A 
ATOM      6  C   UNL     1      25.589  -7.736  40.750  0.00  0.00    +0.000 A 
ENDROOT
BRANCH   1   7
ATOM      7  O   UNL     1      27.640  -6.846  41.467  0.00  0.00    +0.000 OA
BRANCH   7   8
ATOM      8  C   UNL     1      27.534  -6.653  42.880  0.00  0.00    +0.000 C 
BRANCH   8   9
ATOM      9  C   UNL     1      28.651  -5.727  43.362  0.00  0.00    +0.000 C 
BRANCH   9  10
ATOM     10  N   UNL     1      28.125  -4.391  43.863  0.00  0.00    +0.000 N 
ATOM     11  C   UNL     1      28.992  -3.732  44.901  0.00  0.00    +0.000 C 
ATOM     12  C   UNL     1      27.854  -3.461  42.712  0.00  0.00    +0.000 C 
ATOM     13  H   UNL     1      27.224  -4.600  44.321  0.00  0.00    +0.000 HD
ENDBRANCH   9  10
ENDBRANCH   8   9
ENDBRANCH   7   8
ENDBRANCH   1   7
BRANCH   4  14
ATOM     14  C   UNL     1      22.658  -6.341  38.728  0.00  0.00    +0.000 C 
BRANCH  14  15
ATOM     15  C   UNL     1      22.635  -5.517  37.457  0.00  0.00    +0.000 C 
ATOM     16  O   UNL     1      23.092  -5.854  36.373  0.00  0.00    +0.000 OA
BRANCH  15  17
ATOM     17  O   UNL     1      22.046  -4.307  37.641  0.00  0.00    +0.000 OA
ATOM     18  H   UNL     1      21.719  -4.138  38.546  0.00  0.00    +0.000 HD
ENDBRANCH  15  17
ENDBRANCH  14  15
ENDBRANCH   4  14
TORSDOF 7
ENDMDL
MODEL 4
REMARK minimizedAffinity -7.20568037
REMARK minimizedRMSD -1
REMARK  Name = 
REMARK  9 active torsions:
REMARK  status: ('A' for Active; 'I' for Inactive)
REMARK    1  A    between atoms: N_1  and  C_2
REMARK    2  A    between atoms: N_1  and  C_3
REMARK    3  A    between atoms: N_1  and  C_4
REMARK    4  A    between atoms: C_4  and  C_5
REMARK    5  A    between atoms: C_5  and  O_6
REMARK    6  A    between atoms: O_6  and  C_7
REMARK    7  A    between atoms: C_10  and  C_11
REMARK    8  A    between atoms: C_11  and  C_12
REMARK    9  A    between atoms: C_12  and  O_14
REMARK                            x       y       z     vdW  Elec       q    Type
REMARK                         _______ _______ _______ _____ _____    ______ ____
ROOT
ATOM      1  C   UNL     1      24.059  -6.694  39.309  0.00  0.00    +0.000 A 
ATOM      2  C   UNL     1      24.699  -5.455  39.194  0.00  0.00    +0.000 A 
ATOM      3  C   UNL     1      25.888  -5.206  39.879  0.00  0.00    +0.000 A 
ATOM      4  C   UNL     1      26.474  -6.186  40.688  0.00  0.00    +0.000 A 
ATOM      5  C   UNL     1      25.828  -7.425  40.806  0.00  0.00    +0.000 A 
ATOM      6  C   UNL     1      24.633  -7.677  40.119  0.00  0.00    +0.000 A 
ENDROOT
BRANCH   1   7
ATOM      7  O   UNL     1      22.888  -7.043  38.682  0.00  0.00    +0.000 OA
BRANCH   7   8
ATOM      8  C   UNL     1      22.101  -5.939  38.226  0.00  0.00    +0.000 C 
BRANCH   8   9
ATOM      9  C   UNL     1      22.001  -5.970  36.701  0.00  0.00    +0.000 C 
BRANCH   9  10
ATOM     10  N   UNL     1      20.594  -5.675  36.203  0.00  0.00    +0.000 N 
ATOM     11  C   UNL     1      20.240  -6.350  34.906  0.00  0.00    +0.000 C 
ATOM     12  C   UNL     1      19.579  -5.980  37.270  0.00  0.00    +0.000 C 
ATOM     13  H   UNL     1      20.570  -4.659  36.023  0.00  0.00    +0.000 HD
ENDBRANCH   9  10
ENDBRANCH   8   9
ENDBRANCH   7   8
ENDBRANCH   1   7
BRANCH   4  14
ATOM     14  C   UNL     1      27.801  -5.936  41.368  0.00  0.00    +0.000 C 
BRANCH  14  15
ATOM     15  C   UNL     1      28.180  -6.925  42.450  0.00  0.00    +0.000 C 
ATOM     16  O   UNL     1      27.871  -6.851  43.632  0.00  0.00    +0.000 OA
BRANCH  15  17
ATOM     17  O   UNL     1      28.941  -7.943  41.972  0.00  0.00    +0.000 OA
ATOM     18  H   UNL     1      29.132  -7.903  41.015  0.00  0.00    +0.000 HD
ENDBRANCH  15  17
ENDBRANCH  14  15
ENDBRANCH   4  14
TORSDOF 7
ENDMDL
MODEL 5
REMARK minimizedAffinity -7.09662533
REMARK minimizedRMSD -1
REMARK  Name = 
REMARK  9 active torsions:
REMARK  status: ('A' for Active; 'I' for Inactive)
REMARK    1  A    between atoms: N_1  and  C_2
REMARK    2  A    between atoms: N_1  and  C_3
REMARK    3  A    between atoms: N_1  and  C_4
REMARK    4  A    between atoms: C_4  and  C_5
REMARK    5  A    between atoms: C_5  and  O_6
REMARK    6  A    between atoms: O_6  and  C_7
REMARK    7  A    between atoms: C_10  and  C_11
REMARK    8  A    between atoms: C_11  and  C_12
REMARK    9  A    between atoms: C_12  and  O_14
REMARK                            x       y       z     vdW  Elec       q    Type
REMARK                         _______ _______ _______ _____ _____    ______ ____
ROOT
ATOM      1  C   UNL     1      27.138  -6.616  42.137  0.00  0.00    +0.000 A 
ATOM      2  C   UNL     1      27.089  -5.262  41.790  0.00  0.00    +0.000 A 
ATOM      3  C   UNL     1      26.232  -4.819  40.783  0.00  0.00    +0.000 A 
ATOM      4  C   UNL     1      25.396  -5.712  40.103  0.00  0.00    +0.000 A 
ATOM      5  C   UNL     1      25.448  -7.069  40.449  0.00  0.00    +0.000 A 
ATOM      6  C   UNL     1      26.310  -7.517  41.460  0.00  0.00    +0.000 A 
ENDROOT
BRANCH   1   7
ATOM      7  O   UNL     1      27.943  -7.158  43.109  0.00  0.00    +0.000 OA
BRANCH   7   8
ATOM      8  C   UNL     1      27.662  -8.524  43.426  0.00  0.00    +0.000 C 
BRANCH   8   9
ATOM      9  C   UNL     1      27.308  -8.649  44.908  0.00  0.00    +0.000 C 
BRANCH   9  10
ATOM     10  N   UNL     1      28.127  -9.719  45.615  0.00  0.00    +0.000 N 
ATOM     11  C   UNL     1      27.323 -10.639  46.491  0.00  0.00    +0.000 C 
ATOM     12  C   UNL     1      28.954 -10.494  44.626  0.00  0.00    +0.000 C 
ATOM     13  H   UNL     1      28.773  -9.208  46.238  0.00  0.00    +0.000 HD
ENDBRANCH   9  10
ENDBRANCH   8   9
ENDBRANCH   7   8
ENDBRANCH   1   7
BRANCH   4  14
ATOM     14  C   UNL     1      24.415  -5.215  39.064  0.00  0.00    +0.000 C 
BRANCH  14  15
ATOM     15  C   UNL     1      23.181  -6.069  38.866  0.00  0.00    +0.000 C 
ATOM     16  O   UNL     1      22.980  -6.838  37.937  0.00  0.00    +0.000 OA
BRANCH  15  17
ATOM     17  O   UNL     1      22.266  -5.886  39.854  0.00  0.00    +0.000 OA
ATOM     18  H   UNL     1      22.525  -5.247  40.546  0.00  0.00    +0.000 HD
ENDBRANCH  15  17
ENDBRANCH  14  15
ENDBRANCH   4  14
TORSDOF 7
ENDMDL
