MODEL 1
REMARK VINA RESULT:    -9.866      0.000      0.000
REMARK INTER + INTRA:          -9.958
REMARK INTER:                 -10.443
REMARK INTRA:                   0.485
REMARK UNBOUND:                 0.485
REMARK SMILES O=C1CC[C@H](N2C(=O)c3ccccc3C2=O)C(=O)N1
REMARK SMILES IDX 18 1 17 2 19 3 2 4 1 5 3 6 4 7 5 8 6 10 15 11 7 12 14 13
REMARK SMILES IDX 16 14 9 15 8 16 13 17 10 18 12 19 11 20
REMARK H PARENT 19 9
ROOT
ATOM      1  O   UNL     1      -2.043   7.468  11.540  1.00  0.00    -0.272 OA
ATOM      2  C   UNL     1      -1.842   7.970  12.624  1.00  0.00     0.249 C 
ATOM      3  N   UNL     1      -1.316   9.202  12.692  1.00  0.00    -0.295 N 
ATOM      4  C   UNL     1      -1.058   9.815  13.857  1.00  0.00     0.226 C 
ATOM      5  O   UNL     1      -0.572  10.926  13.849  1.00  0.00    -0.275 OA
ATOM      6  C   UNL     1      -1.359   9.149  15.173  1.00  0.00     0.103 C 
ATOM      7  C   UNL     1      -1.254   7.630  15.005  1.00  0.00     0.046 C 
ATOM      8  C   UNL     1      -2.194   7.201  13.869  1.00  0.00     0.184 C 
ATOM      9  H   UNL     1      -1.102   9.698  11.814  1.00  0.00     0.172 HD
ENDROOT
BRANCH   8  10
ATOM     10  N   UNL     1      -2.036   5.766  13.620  1.00  0.00    -0.262 N 
ATOM     11  C   UNL     1      -0.919   5.195  13.135  1.00  0.00     0.262 C 
ATOM     12  C   UNL     1      -2.989   4.845  13.854  1.00  0.00     0.262 C 
ATOM     13  C   UNL     1      -1.143   3.739  13.025  1.00  0.00     0.053 A 
ATOM     14  O   UNL     1       0.103   5.780  12.836  1.00  0.00    -0.269 OA
ATOM     15  C   UNL     1      -2.459   3.515  13.482  1.00  0.00     0.053 A 
ATOM     16  O   UNL     1      -4.097   5.068  14.297  1.00  0.00    -0.269 OA
ATOM     17  C   UNL     1      -0.373   2.671  12.598  1.00  0.00     0.015 A 
ATOM     18  C   UNL     1      -2.972   2.229  13.503  1.00  0.00     0.015 A 
ATOM     19  C   UNL     1      -0.899   1.389  12.624  1.00  0.00     0.001 A 
ATOM     20  C   UNL     1      -2.189   1.170  13.072  1.00  0.00     0.001 A 
ENDBRANCH   8  10
TORSDOF 1
ENDMDL
MODEL 2
REMARK VINA RESULT:    -8.663      1.999      6.091
REMARK INTER + INTRA:          -8.685
REMARK INTER:                  -9.009
REMARK INTRA:                   0.324
REMARK UNBOUND:                 0.485
REMARK SMILES O=C1CC[C@H](N2C(=O)c3ccccc3C2=O)C(=O)N1
REMARK SMILES IDX 18 1 17 2 19 3 2 4 1 5 3 6 4 7 5 8 6 10 15 11 7 12 14 13
REMARK SMILES IDX 16 14 9 15 8 16 13 17 10 18 12 19 11 20
REMARK H PARENT 19 9
ROOT
ATOM      1  O   UNL     1      -3.376   3.919  13.585  1.00  0.00    -0.272 OA
ATOM      2  C   UNL     1      -2.355   3.277  13.469  1.00  0.00     0.249 C 
ATOM      3  N   UNL     1      -2.351   1.980  13.811  1.00  0.00    -0.295 N 
ATOM      4  C   UNL     1      -1.255   1.211  13.720  1.00  0.00     0.226 C 
ATOM      5  O   UNL     1      -1.315   0.048  14.055  1.00  0.00    -0.275 OA
ATOM      6  C   UNL     1       0.048   1.767  13.210  1.00  0.00     0.103 C 
ATOM      7  C   UNL     1       0.120   3.262  13.536  1.00  0.00     0.046 C 
ATOM      8  C   UNL     1      -1.117   3.949  12.940  1.00  0.00     0.184 C 
ATOM      9  H   UNL     1      -3.224   1.556  14.158  1.00  0.00     0.172 HD
ENDROOT
BRANCH   8  10
ATOM     10  N   UNL     1      -1.124   5.363  13.325  1.00  0.00    -0.262 N 
ATOM     11  C   UNL     1      -1.180   5.807  14.594  1.00  0.00     0.262 C 
ATOM     12  C   UNL     1      -1.067   6.388  12.455  1.00  0.00     0.262 C 
ATOM     13  C   UNL     1      -1.167   7.284  14.577  1.00  0.00     0.053 A 
ATOM     14  O   UNL     1      -1.235   5.109  15.586  1.00  0.00    -0.269 OA
ATOM     15  C   UNL     1      -1.095   7.654  13.218  1.00  0.00     0.053 A 
ATOM     16  O   UNL     1      -1.005   6.290  11.246  1.00  0.00    -0.269 OA
ATOM     17  C   UNL     1      -1.207   8.263  15.555  1.00  0.00     0.015 A 
ATOM     18  C   UNL     1      -1.064   8.995  12.869  1.00  0.00     0.015 A 
ATOM     19  C   UNL     1      -1.176   9.601  15.192  1.00  0.00     0.001 A 
ATOM     20  C   UNL     1      -1.105   9.963  13.860  1.00  0.00     0.001 A 
ENDBRANCH   8  10
TORSDOF 1
ENDMDL
MODEL 3
REMARK VINA RESULT:    -8.638      1.991      5.964
REMARK INTER + INTRA:          -8.658
REMARK INTER:                  -8.975
REMARK INTRA:                   0.317
REMARK UNBOUND:                 0.485
REMARK SMILES O=C1CC[C@H](N2C(=O)c3ccccc3C2=O)C(=O)N1
REMARK SMILES IDX 18 1 17 2 19 3 2 4 1 5 3 6 4 7 5 8 6 10 15 11 7 12 14 13
REMARK SMILES IDX 16 14 9 15 8 16 13 17 10 18 12 19 11 20
REMARK H PARENT 19 9
ROOT
ATOM      1  O   UNL     1      -3.372   3.917  13.593  1.00  0.00    -0.272 OA
ATOM      2  C   UNL     1      -2.349   3.282  13.456  1.00  0.00     0.249 C 
ATOM      3  N   UNL     1      -2.331   1.983  13.787  1.00  0.00    -0.295 N 
ATOM      4  C   UNL     1      -1.232   1.221  13.670  1.00  0.00     0.226 C 
ATOM      5  O   UNL     1      -1.280   0.055  13.997  1.00  0.00    -0.275 OA
ATOM      6  C   UNL     1       0.059   1.790  13.143  1.00  0.00     0.103 C 
ATOM      7  C   UNL     1       0.127   3.282  13.480  1.00  0.00     0.046 C 
ATOM      8  C   UNL     1      -1.124   3.966  12.910  1.00  0.00     0.184 C 
ATOM      9  H   UNL     1      -3.196   1.551  14.145  1.00  0.00     0.172 HD
ENDROOT
BRANCH   8  10
ATOM     10  N   UNL     1      -1.133   5.377  13.307  1.00  0.00    -0.262 N 
ATOM     11  C   UNL     1      -1.113   6.410  12.446  1.00  0.00     0.262 C 
ATOM     12  C   UNL     1      -1.168   5.809  14.581  1.00  0.00     0.262 C 
ATOM     13  C   UNL     1      -1.131   7.669  13.220  1.00  0.00     0.053 A 
ATOM     14  O   UNL     1      -1.084   6.323  11.235  1.00  0.00    -0.269 OA
ATOM     15  C   UNL     1      -1.167   7.287  14.577  1.00  0.00     0.053 A 
ATOM     16  O   UNL     1      -1.197   5.102  15.568  1.00  0.00    -0.269 OA
ATOM     17  C   UNL     1      -1.122   9.012  12.883  1.00  0.00     0.015 A 
ATOM     18  C   UNL     1      -1.193   8.257  15.566  1.00  0.00     0.015 A 
ATOM     19  C   UNL     1      -1.148   9.972  13.883  1.00  0.00     0.001 A 
ATOM     20  C   UNL     1      -1.182   9.598  15.213  1.00  0.00     0.001 A 
ENDBRANCH   8  10
TORSDOF 1
ENDMDL
