MODEL 1
REMARK VINA RESULT:   -10.321      0.000      0.000
REMARK INTER + INTRA:         -17.942
REMARK INTER:                 -16.656
REMARK INTRA:                  -1.286
REMARK UNBOUND:                -1.286
REMARK  Name = 
REMARK  13 active torsions:
REMARK  status: ('A' for Active; 'I' for Inactive)
REMARK    1  A    between atoms: C_1  and  N_2
REMARK    2  A    between atoms: N_2  and  C_3
REMARK    3  A    between atoms: N_2  and  C_4
REMARK    4  A    between atoms: C_4  and  C_5
REMARK    5  A    between atoms: C_6  and  C_7
REMARK    6  A    between atoms: C_10  and  O_13
REMARK    7  A    between atoms: O_13  and  C_14
REMARK    8  A    between atoms: C_14  and  C_15
REMARK    9  A    between atoms: C_15  and  C_16
REMARK   10  A    between atoms: C_16  and  C_17
REMARK   11  A    between atoms: CA_18  and  C_44
REMARK   12  A    between atoms: C_28  and  C_32
REMARK   13  A    between atoms: C_44  and  OXT_46
REMARK                            x       y       z     vdW  Elec       q    Type
REMARK                         _______ _______ _______ _____ _____    ______ ____
ROOT
ATOM      1  C   UNL     1     -13.400 -15.504 -48.180  0.00  0.00    +0.000 A 
ATOM      2  CA  UNL     1     -13.907 -16.746 -47.840  0.00  0.00    +0.000 A 
ATOM      3  N   UNL     1     -15.221 -16.724 -47.447  0.00  0.00    +0.000 NA
ATOM      4  C   UNL     1     -15.722 -15.514 -47.363  0.00  0.00    +0.000 A 
ATOM      5  S   UNL     1     -14.599 -14.297 -47.831  0.00  0.00    +0.000 S 
ATOM      6  N   UNL     1     -17.019 -15.364 -46.942  0.00  0.00    +0.000 N 
ATOM      7  C   UNL     1     -17.407 -14.190 -46.162  0.00  0.00    +0.000 C 
ATOM      8  C   UNL     1     -18.921 -14.153 -45.855  0.00  0.00    +0.000 C 
ATOM      9  C   UNL     1     -19.638 -15.483 -45.803  0.00  0.00    +0.000 A 
ATOM     10  C   UNL     1     -18.959 -16.689 -46.061  0.00  0.00    +0.000 A 
ATOM     11  C   UNL     1     -17.517 -16.657 -46.435  0.00  0.00    +0.000 C 
ATOM     12  C   UNL     1     -19.619 -17.945 -45.971  0.00  0.00    +0.000 A 
ATOM     13  C   UNL     1     -20.993 -17.951 -45.693  0.00  0.00    +0.000 A 
ATOM     14  C   UNL     1     -21.683 -16.751 -45.493  0.00  0.00    +0.000 A 
ATOM     15  C   UNL     1     -21.010 -15.529 -45.528  0.00  0.00    +0.000 A 
ENDROOT
BRANCH  12  16
ATOM     16  C   UNL     1     -18.870 -19.270 -46.184  0.00  0.00    +0.000 C 
ATOM     17  O   UNL     1     -18.352 -19.846 -45.238  0.00  0.00    +0.000 OA
ATOM     18  N   UNL     1     -18.815 -19.647 -47.504  0.00  0.00    +0.000 N 
ATOM     19  C   UNL     1     -18.175 -20.719 -48.075  0.00  0.00    +0.000 A 
ATOM     20  N   UNL     1     -17.569 -21.791 -47.629  0.00  0.00    +0.000 NA
ATOM     21  C   UNL     1     -17.042 -22.515 -48.722  0.00  0.00    +0.000 A 
ATOM     22  C   UNL     1     -16.314 -23.733 -48.708  0.00  0.00    +0.000 A 
ATOM     23  C   UNL     1     -15.804 -24.269 -49.908  0.00  0.00    +0.000 A 
ATOM     24  C   UNL     1     -16.013 -23.626 -51.122  0.00  0.00    +0.000 A 
ATOM     25  C   UNL     1     -16.761 -22.453 -51.172  0.00  0.00    +0.000 A 
ATOM     26  C   UNL     1     -17.265 -21.927 -49.970  0.00  0.00    +0.000 A 
ATOM     27  S   UNL     1     -18.222 -20.524 -49.773  0.00  0.00    +0.000 S 
ATOM     28  H   UNL     1     -19.167 -19.006 -48.195  0.00  0.00    +0.000 HD
ENDBRANCH  12  16
BRANCH   2  29
ATOM     29  C   UNL     1     -13.263 -18.057 -47.840  0.00  0.00    +0.000 C 
ATOM     30  O   UNL     1     -12.064 -18.250 -48.002  0.00  0.00    +0.000 OA
BRANCH  29  31
ATOM     31  OXT UNL     1     -14.153 -19.062 -47.609  0.00  0.00    +0.000 OA
ATOM     32  HXT UNL     1     -13.792 -19.654 -46.901  0.00  0.00    +0.000 HD
ENDBRANCH  29  31
ENDBRANCH   2  29
BRANCH   1  33
ATOM     33  C   UNL     1     -12.045 -15.120 -48.691  0.00  0.00    +0.000 C 
BRANCH  33  34
ATOM     34  C   UNL     1     -11.991 -14.840 -50.195  0.00  0.00    +0.000 C 
BRANCH  34  35
ATOM     35  C   UNL     1     -12.277 -13.401 -50.643  0.00  0.00    +0.000 C 
BRANCH  35  36
ATOM     36  O   UNL     1     -11.910 -12.554 -49.545  0.00  0.00    +0.000 OA
BRANCH  36  40
ATOM     37  C   UNL     1      -9.070  -9.484 -49.833  0.00  0.00    +0.000 A 
ATOM     38  C   UNL     1     -10.158  -9.403 -48.965  0.00  0.00    +0.000 A 
ATOM     39  C   UNL     1     -11.079 -10.452 -48.915  0.00  0.00    +0.000 A 
ATOM     40  C   UNL     1     -10.945 -11.599 -49.713  0.00  0.00    +0.000 A 
ATOM     41  C   UNL     1      -9.869 -11.667 -50.592  0.00  0.00    +0.000 A 
ATOM     42  C   UNL     1      -8.938 -10.612 -50.654  0.00  0.00    +0.000 A 
ATOM     43  F   UNL     1     -12.112 -10.348 -48.064  0.00  0.00    +0.000 F 
BRANCH  37  45
ATOM     44  C   UNL     1      -7.263  -7.568 -49.931  0.00  0.00    +0.000 C 
ATOM     45  C   UNL     1      -8.090  -8.438 -49.883  0.00  0.00    +0.000 C 
BRANCH  44  46
ATOM     46  C   UNL     1      -6.269  -6.478 -50.042  0.00  0.00    +0.000 C 
BRANCH  46  48
ATOM     47  C   UNL     1      -5.603  -4.439 -51.140  0.00  0.00    +0.000 C 
ATOM     48  N   UNL     1      -6.505  -5.595 -51.198  0.00  0.00    +0.000 NA
ATOM     49  C   UNL     1      -6.309  -6.299 -52.468  0.00  0.00    +0.000 C 
ENDBRANCH  46  48
ENDBRANCH  44  46
ENDBRANCH  37  45
ENDBRANCH  36  40
ENDBRANCH  35  36
ENDBRANCH  34  35
ENDBRANCH  33  34
ENDBRANCH   1  33
TORSDOF 11
ENDMDL
MODEL 2
REMARK VINA RESULT:    -9.941      4.691     11.515
REMARK INTER + INTRA:         -17.330
REMARK INTER:                 -16.056
REMARK INTRA:                  -1.274
REMARK UNBOUND:                -1.286
REMARK  Name = 
REMARK  13 active torsions:
REMARK  status: ('A' for Active; 'I' for Inactive)
REMARK    1  A    between atoms: C_1  and  N_2
REMARK    2  A    between atoms: N_2  and  C_3
REMARK    3  A    between atoms: N_2  and  C_4
REMARK    4  A    between atoms: C_4  and  C_5
REMARK    5  A    between atoms: C_6  and  C_7
REMARK    6  A    between atoms: C_10  and  O_13
REMARK    7  A    between atoms: O_13  and  C_14
REMARK    8  A    between atoms: C_14  and  C_15
REMARK    9  A    between atoms: C_15  and  C_16
REMARK   10  A    between atoms: C_16  and  C_17
REMARK   11  A    between atoms: CA_18  and  C_44
REMARK   12  A    between atoms: C_28  and  C_32
REMARK   13  A    between atoms: C_44  and  OXT_46
REMARK                            x       y       z     vdW  Elec       q    Type
REMARK                         _______ _______ _______ _____ _____    ______ ____
ROOT
ATOM      1  C   UNL     1     -13.328 -16.092 -49.040  0.00  0.00    +0.000 A 
ATOM      2  CA  UNL     1     -12.245 -16.027 -49.900  0.00  0.00    +0.000 A 
ATOM      3  N   UNL     1     -11.607 -14.812 -49.903  0.00  0.00    +0.000 NA
ATOM      4  C   UNL     1     -12.208 -13.904 -49.170  0.00  0.00    +0.000 A 
ATOM      5  S   UNL     1     -13.598 -14.516 -48.363  0.00  0.00    +0.000 S 
ATOM      6  N   UNL     1     -11.682 -12.637 -49.127  0.00  0.00    +0.000 N 
ATOM      7  C   UNL     1     -12.564 -11.480 -48.992  0.00  0.00    +0.000 C 
ATOM      8  C   UNL     1     -11.788 -10.149 -48.874  0.00  0.00    +0.000 C 
ATOM      9  C   UNL     1     -10.415 -10.103 -49.507  0.00  0.00    +0.000 A 
ATOM     10  C   UNL     1      -9.864 -11.234 -50.139  0.00  0.00    +0.000 A 
ATOM     11  C   UNL     1     -10.625 -12.515 -50.149  0.00  0.00    +0.000 C 
ATOM     12  C   UNL     1      -8.594 -11.183 -50.773  0.00  0.00    +0.000 A 
ATOM     13  C   UNL     1      -7.859  -9.991 -50.688  0.00  0.00    +0.000 A 
ATOM     14  C   UNL     1      -8.379  -8.883 -50.010  0.00  0.00    +0.000 A 
ATOM     15  C   UNL     1      -9.653  -8.931 -49.441  0.00  0.00    +0.000 A 
ENDROOT
BRANCH  12  16
ATOM     16  C   UNL     1      -8.014 -12.392 -51.524  0.00  0.00    +0.000 C 
ATOM     17  O   UNL     1      -8.407 -12.668 -52.649  0.00  0.00    +0.000 OA
ATOM     18  N   UNL     1      -7.108 -13.103 -50.775  0.00  0.00    +0.000 N 
ATOM     19  C   UNL     1      -6.451 -14.268 -51.083  0.00  0.00    +0.000 A 
ATOM     20  N   UNL     1      -6.304 -15.001 -52.158  0.00  0.00    +0.000 NA
ATOM     21  C   UNL     1      -5.543 -16.148 -51.838  0.00  0.00    +0.000 A 
ATOM     22  C   UNL     1      -5.142 -17.210 -52.689  0.00  0.00    +0.000 A 
ATOM     23  C   UNL     1      -4.439 -18.315 -52.164  0.00  0.00    +0.000 A 
ATOM     24  C   UNL     1      -4.119 -18.379 -50.814  0.00  0.00    +0.000 A 
ATOM     25  C   UNL     1      -4.461 -17.331 -49.963  0.00  0.00    +0.000 A 
ATOM     26  C   UNL     1      -5.161 -16.235 -50.496  0.00  0.00    +0.000 A 
ATOM     27  S   UNL     1      -5.670 -14.829 -49.669  0.00  0.00    +0.000 S 
ATOM     28  H   UNL     1      -6.980 -12.841 -49.812  0.00  0.00    +0.000 HD
ENDBRANCH  12  16
BRANCH   2  29
ATOM     29  C   UNL     1     -11.686 -17.043 -50.788  0.00  0.00    +0.000 C 
ATOM     30  O   UNL     1     -11.976 -17.177 -51.971  0.00  0.00    +0.000 OA
BRANCH  29  31
ATOM     31  OXT UNL     1     -10.770 -17.826 -50.154  0.00  0.00    +0.000 OA
ATOM     32  HXT UNL     1     -10.690 -17.527 -49.212  0.00  0.00    +0.000 HD
ENDBRANCH  29  31
ENDBRANCH   2  29
BRANCH   1  33
ATOM     33  C   UNL     1     -14.243 -17.235 -48.724  0.00  0.00    +0.000 C 
BRANCH  33  34
ATOM     34  C   UNL     1     -14.984 -17.103 -47.390  0.00  0.00    +0.000 C 
BRANCH  34  35
ATOM     35  C   UNL     1     -16.473 -17.474 -47.386  0.00  0.00    +0.000 C 
BRANCH  35  36
ATOM     36  O   UNL     1     -17.022 -16.933 -46.176  0.00  0.00    +0.000 OA
BRANCH  36  40
ATOM     37  C   UNL     1     -19.628 -13.650 -46.200  0.00  0.00    +0.000 A 
ATOM     38  C   UNL     1     -20.060 -14.932 -45.866  0.00  0.00    +0.000 A 
ATOM     39  C   UNL     1     -19.151 -15.992 -45.882  0.00  0.00    +0.000 A 
ATOM     40  C   UNL     1     -17.801 -15.811 -46.222  0.00  0.00    +0.000 A 
ATOM     41  C   UNL     1     -17.377 -14.532 -46.573  0.00  0.00    +0.000 A 
ATOM     42  C   UNL     1     -18.288 -13.459 -46.566  0.00  0.00    +0.000 A 
ATOM     43  F   UNL     1     -19.597 -17.214 -45.549  0.00  0.00    +0.000 F 
BRANCH  37  45
ATOM     44  C   UNL     1     -21.292 -11.608 -46.124  0.00  0.00    +0.000 C 
ATOM     45  C   UNL     1     -20.530 -12.536 -46.160  0.00  0.00    +0.000 C 
BRANCH  44  46
ATOM     46  C   UNL     1     -22.220 -10.461 -46.020  0.00  0.00    +0.000 C 
BRANCH  46  48
ATOM     47  C   UNL     1     -22.661  -8.271 -45.116  0.00  0.00    +0.000 C 
ATOM     48  N   UNL     1     -21.643  -9.312 -45.300  0.00  0.00    +0.000 NA
ATOM     49  C   UNL     1     -21.108  -9.702 -43.994  0.00  0.00    +0.000 C 
ENDBRANCH  46  48
ENDBRANCH  44  46
ENDBRANCH  37  45
ENDBRANCH  36  40
ENDBRANCH  35  36
ENDBRANCH  34  35
ENDBRANCH  33  34
ENDBRANCH   1  33
TORSDOF 11
ENDMDL
MODEL 3
REMARK VINA RESULT:    -9.879      4.428     14.862
REMARK INTER + INTRA:         -17.228
REMARK INTER:                 -16.157
REMARK INTRA:                  -1.072
REMARK UNBOUND:                -1.286
REMARK  Name = 
REMARK  13 active torsions:
REMARK  status: ('A' for Active; 'I' for Inactive)
REMARK    1  A    between atoms: C_1  and  N_2
REMARK    2  A    between atoms: N_2  and  C_3
REMARK    3  A    between atoms: N_2  and  C_4
REMARK    4  A    between atoms: C_4  and  C_5
REMARK    5  A    between atoms: C_6  and  C_7
REMARK    6  A    between atoms: C_10  and  O_13
REMARK    7  A    between atoms: O_13  and  C_14
REMARK    8  A    between atoms: C_14  and  C_15
REMARK    9  A    between atoms: C_15  and  C_16
REMARK   10  A    between atoms: C_16  and  C_17
REMARK   11  A    between atoms: CA_18  and  C_44
REMARK   12  A    between atoms: C_28  and  C_32
REMARK   13  A    between atoms: C_44  and  OXT_46
REMARK                            x       y       z     vdW  Elec       q    Type
REMARK                         _______ _______ _______ _____ _____    ______ ____
ROOT
ATOM      1  C   UNL     1     -11.500 -12.087 -49.896  0.00  0.00    +0.000 A 
ATOM      2  CA  UNL     1     -10.498 -11.143 -49.748  0.00  0.00    +0.000 A 
ATOM      3  N   UNL     1      -9.284 -11.535 -50.252  0.00  0.00    +0.000 NA
ATOM      4  C   UNL     1      -9.272 -12.775 -50.683  0.00  0.00    +0.000 A 
ATOM      5  S   UNL     1     -10.808 -13.539 -50.548  0.00  0.00    +0.000 S 
ATOM      6  N   UNL     1      -8.100 -13.292 -51.175  0.00  0.00    +0.000 N 
ATOM      7  C   UNL     1      -7.788 -14.708 -50.992  0.00  0.00    +0.000 C 
ATOM      8  C   UNL     1      -6.472 -15.122 -51.687  0.00  0.00    +0.000 C 
ATOM      9  C   UNL     1      -5.432 -14.040 -51.879  0.00  0.00    +0.000 A 
ATOM     10  C   UNL     1      -5.676 -12.714 -51.474  0.00  0.00    +0.000 A 
ATOM     11  C   UNL     1      -6.997 -12.355 -50.885  0.00  0.00    +0.000 C 
ATOM     12  C   UNL     1      -4.687 -11.703 -51.612  0.00  0.00    +0.000 A 
ATOM     13  C   UNL     1      -3.479 -12.042 -52.237  0.00  0.00    +0.000 A 
ATOM     14  C   UNL     1      -3.256 -13.346 -52.693  0.00  0.00    +0.000 A 
ATOM     15  C   UNL     1      -4.215 -14.341 -52.499  0.00  0.00    +0.000 A 
ENDROOT
BRANCH  12  16
ATOM     16  C   UNL     1      -4.919 -10.269 -51.111  0.00  0.00    +0.000 C 
ATOM     17  O   UNL     1      -4.944 -10.029 -49.912  0.00  0.00    +0.000 OA
ATOM     18  N   UNL     1      -5.146  -9.377 -52.130  0.00  0.00    +0.000 N 
ATOM     19  C   UNL     1      -5.460  -8.042 -52.062  0.00  0.00    +0.000 A 
ATOM     20  N   UNL     1      -5.499  -7.139 -51.114  0.00  0.00    +0.000 NA
ATOM     21  C   UNL     1      -5.967  -5.919 -51.654  0.00  0.00    +0.000 A 
ATOM     22  C   UNL     1      -6.166  -4.679 -50.995  0.00  0.00    +0.000 A 
ATOM     23  C   UNL     1      -6.713  -3.583 -51.694  0.00  0.00    +0.000 A 
ATOM     24  C   UNL     1      -7.054  -3.693 -53.036  0.00  0.00    +0.000 A 
ATOM     25  C   UNL     1      -6.829  -4.884 -53.720  0.00  0.00    +0.000 A 
ATOM     26  C   UNL     1      -6.283  -5.970 -53.015  0.00  0.00    +0.000 A 
ATOM     27  S   UNL     1      -5.897  -7.517 -53.629  0.00  0.00    +0.000 S 
ATOM     28  H   UNL     1      -5.232  -9.737 -53.066  0.00  0.00    +0.000 HD
ENDBRANCH  12  16
BRANCH   2  29
ATOM     29  C   UNL     1     -10.540  -9.812 -49.148  0.00  0.00    +0.000 C 
ATOM     30  O   UNL     1     -10.195  -9.548 -48.003  0.00  0.00    +0.000 OA
BRANCH  29  31
ATOM     31  OXT UNL     1     -10.989  -8.872 -50.025  0.00  0.00    +0.000 OA
ATOM     32  HXT UNL     1     -10.336  -8.126 -50.058  0.00  0.00    +0.000 HD
ENDBRANCH  29  31
ENDBRANCH   2  29
BRANCH   1  33
ATOM     33  C   UNL     1     -12.950 -12.023 -49.521  0.00  0.00    +0.000 C 
BRANCH  33  34
ATOM     34  C   UNL     1     -13.345 -12.942 -48.361  0.00  0.00    +0.000 C 
BRANCH  34  35
ATOM     35  C   UNL     1     -14.126 -14.213 -48.720  0.00  0.00    +0.000 C 
BRANCH  35  36
ATOM     36  O   UNL     1     -14.351 -14.912 -47.488  0.00  0.00    +0.000 OA
BRANCH  36  40
ATOM     37  C   UNL     1     -18.218 -15.660 -46.053  0.00  0.00    +0.000 A 
ATOM     38  C   UNL     1     -17.417 -16.673 -46.577  0.00  0.00    +0.000 A 
ATOM     39  C   UNL     1     -16.139 -16.367 -47.049  0.00  0.00    +0.000 A 
ATOM     40  C   UNL     1     -15.623 -15.062 -47.010  0.00  0.00    +0.000 A 
ATOM     41  C   UNL     1     -16.433 -14.049 -46.504  0.00  0.00    +0.000 A 
ATOM     42  C   UNL     1     -17.725 -14.347 -46.031  0.00  0.00    +0.000 A 
ATOM     43  F   UNL     1     -15.390 -17.366 -47.541  0.00  0.00    +0.000 F 
BRANCH  37  45
ATOM     44  C   UNL     1     -20.616 -16.195 -45.100  0.00  0.00    +0.000 C 
ATOM     45  C   UNL     1     -19.521 -15.948 -45.530  0.00  0.00    +0.000 C 
BRANCH  44  46
ATOM     46  C   UNL     1     -21.944 -16.554 -44.555  0.00  0.00    +0.000 C 
BRANCH  46  48
ATOM     47  C   UNL     1     -24.298 -16.064 -44.714  0.00  0.00    +0.000 C 
ATOM     48  N   UNL     1     -23.052 -16.230 -45.471  0.00  0.00    +0.000 NA
ATOM     49  C   UNL     1     -22.785 -15.011 -46.237  0.00  0.00    +0.000 C 
ENDBRANCH  46  48
ENDBRANCH  44  46
ENDBRANCH  37  45
ENDBRANCH  36  40
ENDBRANCH  35  36
ENDBRANCH  34  35
ENDBRANCH  33  34
ENDBRANCH   1  33
TORSDOF 11
ENDMDL
MODEL 4
REMARK VINA RESULT:    -9.452      2.903      6.563
REMARK INTER + INTRA:         -16.541
REMARK INTER:                 -15.315
REMARK INTRA:                  -1.226
REMARK UNBOUND:                -1.286
REMARK  Name = 
REMARK  13 active torsions:
REMARK  status: ('A' for Active; 'I' for Inactive)
REMARK    1  A    between atoms: C_1  and  N_2
REMARK    2  A    between atoms: N_2  and  C_3
REMARK    3  A    between atoms: N_2  and  C_4
REMARK    4  A    between atoms: C_4  and  C_5
REMARK    5  A    between atoms: C_6  and  C_7
REMARK    6  A    between atoms: C_10  and  O_13
REMARK    7  A    between atoms: O_13  and  C_14
REMARK    8  A    between atoms: C_14  and  C_15
REMARK    9  A    between atoms: C_15  and  C_16
REMARK   10  A    between atoms: C_16  and  C_17
REMARK   11  A    between atoms: CA_18  and  C_44
REMARK   12  A    between atoms: C_28  and  C_32
REMARK   13  A    between atoms: C_44  and  OXT_46
REMARK                            x       y       z     vdW  Elec       q    Type
REMARK                         _______ _______ _______ _____ _____    ______ ____
ROOT
ATOM      1  C   UNL     1     -13.059 -15.791 -48.734  0.00  0.00    +0.000 A 
ATOM      2  CA  UNL     1     -14.033 -14.891 -48.338  0.00  0.00    +0.000 A 
ATOM      3  N   UNL     1     -15.153 -15.480 -47.805  0.00  0.00    +0.000 NA
ATOM      4  C   UNL     1     -15.135 -16.790 -47.871  0.00  0.00    +0.000 A 
ATOM      5  S   UNL     1     -13.680 -17.402 -48.554  0.00  0.00    +0.000 S 
ATOM      6  N   UNL     1     -16.220 -17.489 -47.403  0.00  0.00    +0.000 N 
ATOM      7  C   UNL     1     -16.616 -18.744 -48.039  0.00  0.00    +0.000 C 
ATOM      8  C   UNL     1     -17.802 -19.427 -47.323  0.00  0.00    +0.000 C 
ATOM      9  C   UNL     1     -18.747 -18.526 -46.559  0.00  0.00    +0.000 A 
ATOM     10  C   UNL     1     -18.527 -17.138 -46.479  0.00  0.00    +0.000 A 
ATOM     11  C   UNL     1     -17.320 -16.545 -47.121  0.00  0.00    +0.000 C 
ATOM     12  C   UNL     1     -19.435 -16.281 -45.800  0.00  0.00    +0.000 A 
ATOM     13  C   UNL     1     -20.525 -16.865 -45.139  0.00  0.00    +0.000 A 
ATOM     14  C   UNL     1     -20.714 -18.251 -45.167  0.00  0.00    +0.000 A 
ATOM     15  C   UNL     1     -19.845 -19.073 -45.886  0.00  0.00    +0.000 A 
ENDROOT
BRANCH  12  16
ATOM     16  C   UNL     1     -19.240 -14.757 -45.766  0.00  0.00    +0.000 C 
ATOM     17  O   UNL     1     -18.133 -14.281 -45.559  0.00  0.00    +0.000 OA
ATOM     18  N   UNL     1     -20.416 -14.064 -45.921  0.00  0.00    +0.000 N 
ATOM     19  C   UNL     1     -20.638 -12.710 -45.871  0.00  0.00    +0.000 A 
ATOM     20  N   UNL     1     -19.883 -11.640 -45.830  0.00  0.00    +0.000 NA
ATOM     21  C   UNL     1     -20.706 -10.496 -45.726  0.00  0.00    +0.000 A 
ATOM     22  C   UNL     1     -20.320  -9.133 -45.654  0.00  0.00    +0.000 A 
ATOM     23  C   UNL     1     -21.293  -8.127 -45.481  0.00  0.00    +0.000 A 
ATOM     24  C   UNL     1     -22.641  -8.449 -45.388  0.00  0.00    +0.000 A 
ATOM     25  C   UNL     1     -23.054  -9.773 -45.500  0.00  0.00    +0.000 A 
ATOM     26  C   UNL     1     -22.076 -10.768 -45.673  0.00  0.00    +0.000 A 
ATOM     27  S   UNL     1     -22.327 -12.449 -45.856  0.00  0.00    +0.000 S 
ATOM     28  H   UNL     1     -21.275 -14.587 -45.946  0.00  0.00    +0.000 HD
ENDBRANCH  12  16
BRANCH   2  29
ATOM     29  C   UNL     1     -14.047 -13.432 -48.398  0.00  0.00    +0.000 C 
ATOM     30  O   UNL     1     -14.034 -12.689 -47.424  0.00  0.00    +0.000 OA
BRANCH  29  31
ATOM     31  OXT UNL     1     -14.051 -12.975 -49.681  0.00  0.00    +0.000 OA
ATOM     32  HXT UNL     1     -13.220 -12.457 -49.839  0.00  0.00    +0.000 HD
ENDBRANCH  29  31
ENDBRANCH   2  29
BRANCH   1  33
ATOM     33  C   UNL     1     -11.698 -15.548 -49.314  0.00  0.00    +0.000 C 
BRANCH  33  34
ATOM     34  C   UNL     1     -11.673 -15.424 -50.840  0.00  0.00    +0.000 C 
BRANCH  34  35
ATOM     35  C   UNL     1     -11.154 -14.101 -51.419  0.00  0.00    +0.000 C 
BRANCH  35  36
ATOM     36  O   UNL     1     -11.201 -13.145 -50.351  0.00  0.00    +0.000 OA
BRANCH  36  40
ATOM     37  C   UNL     1      -8.793  -9.718 -50.177  0.00  0.00    +0.000 A 
ATOM     38  C   UNL     1      -9.947  -9.848 -49.407  0.00  0.00    +0.000 A 
ATOM     39  C   UNL     1     -10.718 -11.009 -49.510  0.00  0.00    +0.000 A 
ATOM     40  C   UNL     1     -10.365 -12.063 -50.367  0.00  0.00    +0.000 A 
ATOM     41  C   UNL     1      -9.222 -11.921 -51.149  0.00  0.00    +0.000 A 
ATOM     42  C   UNL     1      -8.443 -10.752 -51.056  0.00  0.00    +0.000 A 
ATOM     43  F   UNL     1     -11.820 -11.106 -48.750  0.00  0.00    +0.000 F 
BRANCH  37  45
ATOM     44  C   UNL     1      -7.261  -7.583 -49.978  0.00  0.00    +0.000 C 
ATOM     45  C   UNL     1      -7.964  -8.553 -50.069  0.00  0.00    +0.000 C 
BRANCH  44  46
ATOM     46  C   UNL     1      -6.381  -6.395 -49.923  0.00  0.00    +0.000 C 
BRANCH  46  48
ATOM     47  C   UNL     1      -6.390  -4.769 -51.702  0.00  0.00    +0.000 C 
ATOM     48  N   UNL     1      -5.813  -6.034 -51.234  0.00  0.00    +0.000 NA
ATOM     49  C   UNL     1      -4.355  -5.911 -51.178  0.00  0.00    +0.000 C 
ENDBRANCH  46  48
ENDBRANCH  44  46
ENDBRANCH  37  45
ENDBRANCH  36  40
ENDBRANCH  35  36
ENDBRANCH  34  35
ENDBRANCH  33  34
ENDBRANCH   1  33
TORSDOF 11
ENDMDL
MODEL 5
REMARK VINA RESULT:    -9.413      4.627     10.719
REMARK INTER + INTRA:         -16.478
REMARK INTER:                 -15.169
REMARK INTRA:                  -1.309
REMARK UNBOUND:                -1.286
REMARK  Name = 
REMARK  13 active torsions:
REMARK  status: ('A' for Active; 'I' for Inactive)
REMARK    1  A    between atoms: C_1  and  N_2
REMARK    2  A    between atoms: N_2  and  C_3
REMARK    3  A    between atoms: N_2  and  C_4
REMARK    4  A    between atoms: C_4  and  C_5
REMARK    5  A    between atoms: C_6  and  C_7
REMARK    6  A    between atoms: C_10  and  O_13
REMARK    7  A    between atoms: O_13  and  C_14
REMARK    8  A    between atoms: C_14  and  C_15
REMARK    9  A    between atoms: C_15  and  C_16
REMARK   10  A    between atoms: C_16  and  C_17
REMARK   11  A    between atoms: CA_18  and  C_44
REMARK   12  A    between atoms: C_28  and  C_32
REMARK   13  A    between atoms: C_44  and  OXT_46
REMARK                            x       y       z     vdW  Elec       q    Type
REMARK                         _______ _______ _______ _____ _____    ______ ____
ROOT
ATOM      1  C   UNL     1     -13.929 -16.744 -47.985  0.00  0.00    +0.000 A 
ATOM      2  CA  UNL     1     -12.967 -16.929 -48.964  0.00  0.00    +0.000 A 
ATOM      3  N   UNL     1     -12.273 -15.790 -49.286  0.00  0.00    +0.000 NA
ATOM      4  C   UNL     1     -12.725 -14.714 -48.685  0.00  0.00    +0.000 A 
ATOM      5  S   UNL     1     -14.026 -15.051 -47.611  0.00  0.00    +0.000 S 
ATOM      6  N   UNL     1     -12.134 -13.507 -48.960  0.00  0.00    +0.000 N 
ATOM      7  C   UNL     1     -12.929 -12.281 -48.956  0.00  0.00    +0.000 C 
ATOM      8  C   UNL     1     -12.077 -11.016 -49.200  0.00  0.00    +0.000 C 
ATOM      9  C   UNL     1     -10.799 -11.198 -49.989  0.00  0.00    +0.000 A 
ATOM     10  C   UNL     1     -10.396 -12.468 -50.443  0.00  0.00    +0.000 A 
ATOM     11  C   UNL     1     -11.216 -13.665 -50.105  0.00  0.00    +0.000 C 
ATOM     12  C   UNL     1      -9.220 -12.638 -51.222  0.00  0.00    +0.000 A 
ATOM     13  C   UNL     1      -8.420 -11.512 -51.466  0.00  0.00    +0.000 A 
ATOM     14  C   UNL     1      -8.788 -10.258 -50.967  0.00  0.00    +0.000 A 
ATOM     15  C   UNL     1      -9.976 -10.097 -50.252  0.00  0.00    +0.000 A 
ENDROOT
BRANCH  12  16
ATOM     16  C   UNL     1      -8.807 -14.010 -51.778  0.00  0.00    +0.000 C 
ATOM     17  O   UNL     1      -8.001 -14.704 -51.175  0.00  0.00    +0.000 OA
ATOM     18  N   UNL     1      -9.382 -14.289 -52.994  0.00  0.00    +0.000 N 
ATOM     19  C   UNL     1      -9.192 -15.372 -53.816  0.00  0.00    +0.000 A 
ATOM     20  N   UNL     1      -8.588 -16.529 -53.712  0.00  0.00    +0.000 NA
ATOM     21  C   UNL     1      -8.684 -17.215 -54.944  0.00  0.00    +0.000 A 
ATOM     22  C   UNL     1      -8.178 -18.496 -55.284  0.00  0.00    +0.000 A 
ATOM     23  C   UNL     1      -8.315 -18.987 -56.600  0.00  0.00    +0.000 A 
ATOM     24  C   UNL     1      -8.954 -18.236 -57.578  0.00  0.00    +0.000 A 
ATOM     25  C   UNL     1      -9.501 -16.995 -57.261  0.00  0.00    +0.000 A 
ATOM     26  C   UNL     1      -9.359 -16.515 -55.947  0.00  0.00    +0.000 A 
ATOM     27  S   UNL     1      -9.954 -15.045 -55.311  0.00  0.00    +0.000 S 
ATOM     28  H   UNL     1      -9.921 -13.566 -53.441  0.00  0.00    +0.000 HD
ENDBRANCH  12  16
BRANCH   2  29
ATOM     29  C   UNL     1     -12.585 -18.136 -49.690  0.00  0.00    +0.000 C 
ATOM     30  O   UNL     1     -12.805 -18.341 -50.878  0.00  0.00    +0.000 OA
BRANCH  29  31
ATOM     31  OXT UNL     1     -11.919 -19.020 -48.895  0.00  0.00    +0.000 OA
ATOM     32  HXT UNL     1     -11.278 -18.520 -48.327  0.00  0.00    +0.000 HD
ENDBRANCH  29  31
ENDBRANCH   2  29
BRANCH   1  33
ATOM     33  C   UNL     1     -14.851 -17.732 -47.338  0.00  0.00    +0.000 C 
BRANCH  33  34
ATOM     34  C   UNL     1     -16.148 -17.988 -48.112  0.00  0.00    +0.000 C 
BRANCH  34  35
ATOM     35  C   UNL     1     -17.429 -18.151 -47.284  0.00  0.00    +0.000 C 
BRANCH  35  36
ATOM     36  O   UNL     1     -17.317 -17.239 -46.182  0.00  0.00    +0.000 OA
BRANCH  36  40
ATOM     37  C   UNL     1     -19.464 -13.639 -46.244  0.00  0.00    +0.000 A 
ATOM     38  C   UNL     1     -20.075 -14.857 -45.950  0.00  0.00    +0.000 A 
ATOM     39  C   UNL     1     -19.313 -16.028 -45.950  0.00  0.00    +0.000 A 
ATOM     40  C   UNL     1     -17.939 -16.023 -46.237  0.00  0.00    +0.000 A 
ATOM     41  C   UNL     1     -17.337 -14.807 -46.549  0.00  0.00    +0.000 A 
ATOM     42  C   UNL     1     -18.097 -13.623 -46.557  0.00  0.00    +0.000 A 
ATOM     43  F   UNL     1     -19.929 -17.184 -45.656  0.00  0.00    +0.000 F 
BRANCH  37  45
ATOM     44  C   UNL     1     -20.831 -11.386 -46.202  0.00  0.00    +0.000 C 
ATOM     45  C   UNL     1     -20.212 -12.416 -46.219  0.00  0.00    +0.000 C 
BRANCH  44  46
ATOM     46  C   UNL     1     -21.609 -10.129 -46.238  0.00  0.00    +0.000 C 
BRANCH  46  48
ATOM     47  C   UNL     1     -22.015  -7.964 -45.260  0.00  0.00    +0.000 C 
ATOM     48  N   UNL     1     -21.083  -9.096 -45.329  0.00  0.00    +0.000 NA
ATOM     49  C   UNL     1     -20.859  -9.622 -43.981  0.00  0.00    +0.000 C 
ENDBRANCH  46  48
ENDBRANCH  44  46
ENDBRANCH  37  45
ENDBRANCH  36  40
ENDBRANCH  35  36
ENDBRANCH  34  35
ENDBRANCH  33  34
ENDBRANCH   1  33
TORSDOF 11
ENDMDL
MODEL 6
REMARK VINA RESULT:    -9.239      4.561     11.903
REMARK INTER + INTRA:         -16.196
REMARK INTER:                 -15.055
REMARK INTRA:                  -1.141
REMARK UNBOUND:                -1.286
REMARK  Name = 
REMARK  13 active torsions:
REMARK  status: ('A' for Active; 'I' for Inactive)
REMARK    1  A    between atoms: C_1  and  N_2
REMARK    2  A    between atoms: N_2  and  C_3
REMARK    3  A    between atoms: N_2  and  C_4
REMARK    4  A    between atoms: C_4  and  C_5
REMARK    5  A    between atoms: C_6  and  C_7
REMARK    6  A    between atoms: C_10  and  O_13
REMARK    7  A    between atoms: O_13  and  C_14
REMARK    8  A    between atoms: C_14  and  C_15
REMARK    9  A    between atoms: C_15  and  C_16
REMARK   10  A    between atoms: C_16  and  C_17
REMARK   11  A    between atoms: CA_18  and  C_44
REMARK   12  A    between atoms: C_28  and  C_32
REMARK   13  A    between atoms: C_44  and  OXT_46
REMARK                            x       y       z     vdW  Elec       q    Type
REMARK                         _______ _______ _______ _____ _____    ______ ____
ROOT
ATOM      1  C   UNL     1     -12.603 -16.222 -49.354  0.00  0.00    +0.000 A 
ATOM      2  CA  UNL     1     -11.440 -16.066 -50.088  0.00  0.00    +0.000 A 
ATOM      3  N   UNL     1     -10.922 -14.796 -50.048  0.00  0.00    +0.000 NA
ATOM      4  C   UNL     1     -11.685 -13.940 -49.410  0.00  0.00    +0.000 A 
ATOM      5  S   UNL     1     -13.096 -14.671 -48.750  0.00  0.00    +0.000 S 
ATOM      6  N   UNL     1     -11.289 -12.628 -49.338  0.00  0.00    +0.000 N 
ATOM      7  C   UNL     1     -12.285 -11.558 -49.332  0.00  0.00    +0.000 C 
ATOM      8  C   UNL     1     -11.654 -10.159 -49.159  0.00  0.00    +0.000 C 
ATOM      9  C   UNL     1     -10.229  -9.990 -49.635  0.00  0.00    +0.000 A 
ATOM     10  C   UNL     1      -9.506 -11.071 -50.173  0.00  0.00    +0.000 A 
ATOM     11  C   UNL     1     -10.137 -12.419 -50.238  0.00  0.00    +0.000 C 
ATOM     12  C   UNL     1      -8.182 -10.908 -50.662  0.00  0.00    +0.000 A 
ATOM     13  C   UNL     1      -7.577  -9.650 -50.523  0.00  0.00    +0.000 A 
ATOM     14  C   UNL     1      -8.272  -8.588 -49.934  0.00  0.00    +0.000 A 
ATOM     15  C   UNL     1      -9.592  -8.749 -49.512  0.00  0.00    +0.000 A 
ENDROOT
BRANCH  12  16
ATOM     16  C   UNL     1      -7.409 -12.066 -51.313  0.00  0.00    +0.000 C 
ATOM     17  O   UNL     1      -6.731 -12.818 -50.628  0.00  0.00    +0.000 OA
ATOM     18  N   UNL     1      -7.531 -12.087 -52.681  0.00  0.00    +0.000 N 
ATOM     19  C   UNL     1      -6.930 -12.919 -53.593  0.00  0.00    +0.000 A 
ATOM     20  N   UNL     1      -6.214 -14.014 -53.528  0.00  0.00    +0.000 NA
ATOM     21  C   UNL     1      -5.818 -14.387 -54.833  0.00  0.00    +0.000 A 
ATOM     22  C   UNL     1      -5.039 -15.502 -55.235  0.00  0.00    +0.000 A 
ATOM     23  C   UNL     1      -4.685 -15.669 -56.591  0.00  0.00    +0.000 A 
ATOM     24  C   UNL     1      -5.100 -14.757 -57.553  0.00  0.00    +0.000 A 
ATOM     25  C   UNL     1      -5.904 -13.678 -57.194  0.00  0.00    +0.000 A 
ATOM     26  C   UNL     1      -6.251 -13.521 -55.841  0.00  0.00    +0.000 A 
ATOM     27  S   UNL     1      -7.235 -12.302 -55.158  0.00  0.00    +0.000 S 
ATOM     28  H   UNL     1      -8.011 -11.323 -53.126  0.00  0.00    +0.000 HD
ENDBRANCH  12  16
BRANCH   2  29
ATOM     29  C   UNL     1     -10.692 -17.036 -50.883  0.00  0.00    +0.000 C 
ATOM     30  O   UNL     1     -11.003 -17.412 -52.006  0.00  0.00    +0.000 OA
BRANCH  29  31
ATOM     31  OXT UNL     1      -9.572 -17.467 -50.238  0.00  0.00    +0.000 OA
ATOM     32  HXT UNL     1      -9.771 -18.332 -49.795  0.00  0.00    +0.000 HD
ENDBRANCH  29  31
ENDBRANCH   2  29
BRANCH   1  33
ATOM     33  C   UNL     1     -13.437 -17.444 -49.115  0.00  0.00    +0.000 C 
BRANCH  33  34
ATOM     34  C   UNL     1     -14.245 -17.415 -47.814  0.00  0.00    +0.000 C 
BRANCH  34  35
ATOM     35  C   UNL     1     -15.727 -17.036 -47.926  0.00  0.00    +0.000 C 
BRANCH  35  36
ATOM     36  O   UNL     1     -16.163 -16.705 -46.601  0.00  0.00    +0.000 OA
BRANCH  36  40
ATOM     37  C   UNL     1     -19.257 -13.912 -46.157  0.00  0.00    +0.000 A 
ATOM     38  C   UNL     1     -17.966 -13.531 -46.515  0.00  0.00    +0.000 A 
ATOM     39  C   UNL     1     -16.970 -14.502 -46.641  0.00  0.00    +0.000 A 
ATOM     40  C   UNL     1     -17.227 -15.865 -46.422  0.00  0.00    +0.000 A 
ATOM     41  C   UNL     1     -18.513 -16.240 -46.045  0.00  0.00    +0.000 A 
ATOM     42  C   UNL     1     -19.522 -15.267 -45.910  0.00  0.00    +0.000 A 
ATOM     43  F   UNL     1     -15.738 -14.104 -46.994  0.00  0.00    +0.000 F 
BRANCH  37  45
ATOM     44  C   UNL     1     -21.183 -12.123 -45.967  0.00  0.00    +0.000 C 
ATOM     45  C   UNL     1     -20.309 -12.943 -46.051  0.00  0.00    +0.000 C 
BRANCH  44  46
ATOM     46  C   UNL     1     -22.270 -11.120 -45.921  0.00  0.00    +0.000 C 
BRANCH  46  48
ATOM     47  C   UNL     1     -22.815  -8.931 -46.767  0.00  0.00    +0.000 C 
ATOM     48  N   UNL     1     -21.790  -9.738 -46.095  0.00  0.00    +0.000 NA
ATOM     49  C   UNL     1     -21.448  -9.117 -44.814  0.00  0.00    +0.000 C 
ENDBRANCH  46  48
ENDBRANCH  44  46
ENDBRANCH  37  45
ENDBRANCH  36  40
ENDBRANCH  35  36
ENDBRANCH  34  35
ENDBRANCH  33  34
ENDBRANCH   1  33
TORSDOF 11
ENDMDL
MODEL 7
REMARK VINA RESULT:    -9.138      4.092     10.824
REMARK INTER + INTRA:         -16.033
REMARK INTER:                 -14.785
REMARK INTRA:                  -1.248
REMARK UNBOUND:                -1.286
REMARK  Name = 
REMARK  13 active torsions:
REMARK  status: ('A' for Active; 'I' for Inactive)
REMARK    1  A    between atoms: C_1  and  N_2
REMARK    2  A    between atoms: N_2  and  C_3
REMARK    3  A    between atoms: N_2  and  C_4
REMARK    4  A    between atoms: C_4  and  C_5
REMARK    5  A    between atoms: C_6  and  C_7
REMARK    6  A    between atoms: C_10  and  O_13
REMARK    7  A    between atoms: O_13  and  C_14
REMARK    8  A    between atoms: C_14  and  C_15
REMARK    9  A    between atoms: C_15  and  C_16
REMARK   10  A    between atoms: C_16  and  C_17
REMARK   11  A    between atoms: CA_18  and  C_44
REMARK   12  A    between atoms: C_28  and  C_32
REMARK   13  A    between atoms: C_44  and  OXT_46
REMARK                            x       y       z     vdW  Elec       q    Type
REMARK                         _______ _______ _______ _____ _____    ______ ____
ROOT
ATOM      1  C   UNL     1     -16.325 -17.606 -47.723  0.00  0.00    +0.000 A 
ATOM      2  CA  UNL     1     -15.064 -17.096 -47.976  0.00  0.00    +0.000 A 
ATOM      3  N   UNL     1     -14.399 -17.730 -48.995  0.00  0.00    +0.000 NA
ATOM      4  C   UNL     1     -15.041 -18.772 -49.469  0.00  0.00    +0.000 A 
ATOM      5  S   UNL     1     -16.568 -19.012 -48.713  0.00  0.00    +0.000 S 
ATOM      6  N   UNL     1     -14.455 -19.510 -50.467  0.00  0.00    +0.000 N 
ATOM      7  C   UNL     1     -14.676 -20.953 -50.539  0.00  0.00    +0.000 C 
ATOM      8  C   UNL     1     -14.009 -21.596 -51.776  0.00  0.00    +0.000 C 
ATOM      9  C   UNL     1     -12.795 -20.892 -52.338  0.00  0.00    +0.000 A 
ATOM     10  C   UNL     1     -12.324 -19.690 -51.779  0.00  0.00    +0.000 A 
ATOM     11  C   UNL     1     -13.057 -19.071 -50.638  0.00  0.00    +0.000 C 
ATOM     12  C   UNL     1     -11.158 -19.047 -52.276  0.00  0.00    +0.000 A 
ATOM     13  C   UNL     1     -10.525 -19.602 -53.397  0.00  0.00    +0.000 A 
ATOM     14  C   UNL     1     -11.024 -20.766 -53.992  0.00  0.00    +0.000 A 
ATOM     15  C   UNL     1     -12.137 -21.417 -53.457  0.00  0.00    +0.000 A 
ENDROOT
BRANCH  12  16
ATOM     16  C   UNL     1     -10.597 -17.771 -51.629  0.00  0.00    +0.000 C 
ATOM     17  O   UNL     1      -9.453 -17.748 -51.198  0.00  0.00    +0.000 OA
ATOM     18  N   UNL     1     -11.524 -16.760 -51.550  0.00  0.00    +0.000 N 
ATOM     19  C   UNL     1     -11.407 -15.518 -50.976  0.00  0.00    +0.000 A 
ATOM     20  N   UNL     1     -10.426 -14.808 -50.477  0.00  0.00    +0.000 NA
ATOM     21  C   UNL     1     -10.944 -13.597 -49.965  0.00  0.00    +0.000 A 
ATOM     22  C   UNL     1     -10.246 -12.532 -49.340  0.00  0.00    +0.000 A 
ATOM     23  C   UNL     1     -10.953 -11.424 -48.826  0.00  0.00    +0.000 A 
ATOM     24  C   UNL     1     -12.337 -11.351 -48.932  0.00  0.00    +0.000 A 
ATOM     25  C   UNL     1     -13.043 -12.360 -49.581  0.00  0.00    +0.000 A 
ATOM     26  C   UNL     1     -12.329 -13.459 -50.090  0.00  0.00    +0.000 A 
ATOM     27  S   UNL     1     -12.959 -14.802 -50.937  0.00  0.00    +0.000 S 
ATOM     28  H   UNL     1     -12.471 -16.963 -51.821  0.00  0.00    +0.000 HD
ENDBRANCH  12  16
BRANCH   2  29
ATOM     29  C   UNL     1     -14.346 -15.999 -47.332  0.00  0.00    +0.000 C 
ATOM     30  O   UNL     1     -14.652 -14.815 -47.415  0.00  0.00    +0.000 OA
BRANCH  29  31
ATOM     31  OXT UNL     1     -13.292 -16.444 -46.593  0.00  0.00    +0.000 OA
ATOM     32  HXT UNL     1     -13.499 -17.353 -46.254  0.00  0.00    +0.000 HD
ENDBRANCH  29  31
ENDBRANCH   2  29
BRANCH   1  33
ATOM     33  C   UNL     1     -17.364 -17.169 -46.736  0.00  0.00    +0.000 C 
BRANCH  33  34
ATOM     34  C   UNL     1     -18.708 -17.890 -46.869  0.00  0.00    +0.000 C 
BRANCH  34  35
ATOM     35  C   UNL     1     -19.941 -17.168 -46.310  0.00  0.00    +0.000 C 
BRANCH  35  36
ATOM     36  O   UNL     1     -19.457 -15.988 -45.654  0.00  0.00    +0.000 OA
BRANCH  36  40
ATOM     37  C   UNL     1     -21.310 -12.260 -46.138  0.00  0.00    +0.000 A 
ATOM     38  C   UNL     1     -19.945 -12.438 -46.352  0.00  0.00    +0.000 A 
ATOM     39  C   UNL     1     -19.377 -13.700 -46.169  0.00  0.00    +0.000 A 
ATOM     40  C   UNL     1     -20.141 -14.810 -45.776  0.00  0.00    +0.000 A 
ATOM     41  C   UNL     1     -21.501 -14.624 -45.543  0.00  0.00    +0.000 A 
ATOM     42  C   UNL     1     -22.080 -13.354 -45.720  0.00  0.00    +0.000 A 
ATOM     43  F   UNL     1     -18.061 -13.841 -46.391  0.00  0.00    +0.000 F 
BRANCH  37  45
ATOM     44  C   UNL     1     -22.443  -9.910 -46.519  0.00  0.00    +0.000 C 
ATOM     45  C   UNL     1     -21.928 -10.983 -46.350  0.00  0.00    +0.000 C 
BRANCH  44  46
ATOM     46  C   UNL     1     -23.023  -8.567 -46.739  0.00  0.00    +0.000 C 
BRANCH  46  48
ATOM     47  C   UNL     1     -21.579  -7.766 -44.985  0.00  0.00    +0.000 C 
ATOM     48  N   UNL     1     -22.928  -7.694 -45.556  0.00  0.00    +0.000 NA
ATOM     49  C   UNL     1     -23.243  -6.302 -45.882  0.00  0.00    +0.000 C 
ENDBRANCH  46  48
ENDBRANCH  44  46
ENDBRANCH  37  45
ENDBRANCH  36  40
ENDBRANCH  35  36
ENDBRANCH  34  35
ENDBRANCH  33  34
ENDBRANCH   1  33
TORSDOF 11
ENDMDL
MODEL 8
REMARK VINA RESULT:    -9.066      4.310     11.010
REMARK INTER + INTRA:         -15.918
REMARK INTER:                 -14.687
REMARK INTRA:                  -1.230
REMARK UNBOUND:                -1.286
REMARK  Name = 
REMARK  13 active torsions:
REMARK  status: ('A' for Active; 'I' for Inactive)
REMARK    1  A    between atoms: C_1  and  N_2
REMARK    2  A    between atoms: N_2  and  C_3
REMARK    3  A    between atoms: N_2  and  C_4
REMARK    4  A    between atoms: C_4  and  C_5
REMARK    5  A    between atoms: C_6  and  C_7
REMARK    6  A    between atoms: C_10  and  O_13
REMARK    7  A    between atoms: O_13  and  C_14
REMARK    8  A    between atoms: C_14  and  C_15
REMARK    9  A    between atoms: C_15  and  C_16
REMARK   10  A    between atoms: C_16  and  C_17
REMARK   11  A    between atoms: CA_18  and  C_44
REMARK   12  A    between atoms: C_28  and  C_32
REMARK   13  A    between atoms: C_44  and  OXT_46
REMARK                            x       y       z     vdW  Elec       q    Type
REMARK                         _______ _______ _______ _____ _____    ______ ____
ROOT
ATOM      1  C   UNL     1     -15.572 -18.404 -48.576  0.00  0.00    +0.000 A 
ATOM      2  CA  UNL     1     -14.514 -17.546 -48.333  0.00  0.00    +0.000 A 
ATOM      3  N   UNL     1     -13.287 -18.066 -48.659  0.00  0.00    +0.000 NA
ATOM      4  C   UNL     1     -13.335 -19.321 -49.039  0.00  0.00    +0.000 A 
ATOM      5  S   UNL     1     -14.940 -19.942 -49.078  0.00  0.00    +0.000 S 
ATOM      6  N   UNL     1     -12.163 -19.962 -49.353  0.00  0.00    +0.000 N 
ATOM      7  C   UNL     1     -12.009 -21.389 -49.079  0.00  0.00    +0.000 C 
ATOM      8  C   UNL     1     -10.659 -21.949 -49.579  0.00  0.00    +0.000 C 
ATOM      9  C   UNL     1      -9.508 -20.972 -49.672  0.00  0.00    +0.000 A 
ATOM     10  C   UNL     1      -9.678 -19.612 -49.352  0.00  0.00    +0.000 A 
ATOM     11  C   UNL     1     -11.024 -19.111 -48.956  0.00  0.00    +0.000 C 
ATOM     12  C   UNL     1      -8.590 -18.699 -49.396  0.00  0.00    +0.000 A 
ATOM     13  C   UNL     1      -7.348 -19.172 -49.845  0.00  0.00    +0.000 A 
ATOM     14  C   UNL     1      -7.191 -20.511 -50.219  0.00  0.00    +0.000 A 
ATOM     15  C   UNL     1      -8.255 -21.408 -50.116  0.00  0.00    +0.000 A 
ENDROOT
BRANCH  12  16
ATOM     16  C   UNL     1      -8.750 -17.227 -48.984  0.00  0.00    +0.000 C 
ATOM     17  O   UNL     1      -8.029 -16.746 -48.121  0.00  0.00    +0.000 OA
ATOM     18  N   UNL     1      -9.788 -16.601 -49.630  0.00  0.00    +0.000 N 
ATOM     19  C   UNL     1     -10.270 -15.326 -49.464  0.00  0.00    +0.000 A 
ATOM     20  N   UNL     1      -9.876 -14.254 -48.822  0.00  0.00    +0.000 NA
ATOM     21  C   UNL     1     -10.844 -13.237 -48.981  0.00  0.00    +0.000 A 
ATOM     22  C   UNL     1     -10.832 -11.916 -48.463  0.00  0.00    +0.000 A 
ATOM     23  C   UNL     1     -11.934 -11.060 -48.672  0.00  0.00    +0.000 A 
ATOM     24  C   UNL     1     -13.040 -11.488 -49.395  0.00  0.00    +0.000 A 
ATOM     25  C   UNL     1     -13.061 -12.763 -49.954  0.00  0.00    +0.000 A 
ATOM     26  C   UNL     1     -11.958 -13.608 -49.739  0.00  0.00    +0.000 A 
ATOM     27  S   UNL     1     -11.737 -15.195 -50.332  0.00  0.00    +0.000 S 
ATOM     28  H   UNL     1     -10.387 -17.157 -50.216  0.00  0.00    +0.000 HD
ENDBRANCH  12  16
BRANCH   2  29
ATOM     29  C   UNL     1     -14.508 -16.189 -47.793  0.00  0.00    +0.000 C 
ATOM     30  O   UNL     1     -13.998 -15.858 -46.730  0.00  0.00    +0.000 OA
BRANCH  29  31
ATOM     31  OXT UNL     1     -15.123 -15.306 -48.628  0.00  0.00    +0.000 OA
ATOM     32  HXT UNL     1     -16.051 -15.613 -48.794  0.00  0.00    +0.000 HD
ENDBRANCH  29  31
ENDBRANCH   2  29
BRANCH   1  33
ATOM     33  C   UNL     1     -17.045 -18.197 -48.397  0.00  0.00    +0.000 C 
BRANCH  33  34
ATOM     34  C   UNL     1     -17.531 -18.322 -46.950  0.00  0.00    +0.000 C 
BRANCH  34  35
ATOM     35  C   UNL     1     -19.020 -18.051 -46.694  0.00  0.00    +0.000 C 
BRANCH  35  36
ATOM     36  O   UNL     1     -19.082 -17.151 -45.578  0.00  0.00    +0.000 OA
BRANCH  36  40
ATOM     37  C   UNL     1     -20.319 -13.182 -46.111  0.00  0.00    +0.000 A 
ATOM     38  C   UNL     1     -21.222 -14.203 -45.822  0.00  0.00    +0.000 A 
ATOM     39  C   UNL     1     -20.756 -15.510 -45.662  0.00  0.00    +0.000 A 
ATOM     40  C   UNL     1     -19.396 -15.836 -45.779  0.00  0.00    +0.000 A 
ATOM     41  C   UNL     1     -18.500 -14.816 -46.087  0.00  0.00    +0.000 A 
ATOM     42  C   UNL     1     -18.961 -13.497 -46.256  0.00  0.00    +0.000 A 
ATOM     43  F   UNL     1     -21.650 -16.470 -45.377  0.00  0.00    +0.000 F 
BRANCH  37  45
ATOM     44  C   UNL     1     -21.140 -10.689 -46.356  0.00  0.00    +0.000 C 
ATOM     45  C   UNL     1     -20.762 -11.825 -46.249  0.00  0.00    +0.000 C 
BRANCH  44  46
ATOM     46  C   UNL     1     -21.573  -9.277 -46.441  0.00  0.00    +0.000 C 
BRANCH  46  48
ATOM     47  C   UNL     1     -20.776  -7.580 -44.927  0.00  0.00    +0.000 C 
ATOM     48  N   UNL     1     -21.762  -8.650 -45.121  0.00  0.00    +0.000 NA
ATOM     49  C   UNL     1     -23.110  -8.099 -44.969  0.00  0.00    +0.000 C 
ENDBRANCH  46  48
ENDBRANCH  44  46
ENDBRANCH  37  45
ENDBRANCH  36  40
ENDBRANCH  35  36
ENDBRANCH  34  35
ENDBRANCH  33  34
ENDBRANCH   1  33
TORSDOF 11
ENDMDL
MODEL 9
REMARK VINA RESULT:    -8.961      5.100     11.438
REMARK INTER + INTRA:         -15.747
REMARK INTER:                 -14.532
REMARK INTRA:                  -1.215
REMARK UNBOUND:                -1.286
REMARK  Name = 
REMARK  13 active torsions:
REMARK  status: ('A' for Active; 'I' for Inactive)
REMARK    1  A    between atoms: C_1  and  N_2
REMARK    2  A    between atoms: N_2  and  C_3
REMARK    3  A    between atoms: N_2  and  C_4
REMARK    4  A    between atoms: C_4  and  C_5
REMARK    5  A    between atoms: C_6  and  C_7
REMARK    6  A    between atoms: C_10  and  O_13
REMARK    7  A    between atoms: O_13  and  C_14
REMARK    8  A    between atoms: C_14  and  C_15
REMARK    9  A    between atoms: C_15  and  C_16
REMARK   10  A    between atoms: C_16  and  C_17
REMARK   11  A    between atoms: CA_18  and  C_44
REMARK   12  A    between atoms: C_28  and  C_32
REMARK   13  A    between atoms: C_44  and  OXT_46
REMARK                            x       y       z     vdW  Elec       q    Type
REMARK                         _______ _______ _______ _____ _____    ______ ____
ROOT
ATOM      1  C   UNL     1     -12.846 -16.847 -49.693  0.00  0.00    +0.000 A 
ATOM      2  CA  UNL     1     -11.591 -17.410 -49.545  0.00  0.00    +0.000 A 
ATOM      3  N   UNL     1     -10.558 -16.517 -49.684  0.00  0.00    +0.000 NA
ATOM      4  C   UNL     1     -10.951 -15.316 -50.039  0.00  0.00    +0.000 A 
ATOM      5  S   UNL     1     -12.661 -15.187 -50.170  0.00  0.00    +0.000 S 
ATOM      6  N   UNL     1     -10.002 -14.346 -50.246  0.00  0.00    +0.000 N 
ATOM      7  C   UNL     1     -10.214 -13.317 -51.262  0.00  0.00    +0.000 C 
ATOM      8  C   UNL     1      -9.082 -12.266 -51.290  0.00  0.00    +0.000 C 
ATOM      9  C   UNL     1      -7.721 -12.717 -50.807  0.00  0.00    +0.000 A 
ATOM     10  C   UNL     1      -7.515 -14.022 -50.322  0.00  0.00    +0.000 A 
ATOM     11  C   UNL     1      -8.663 -14.968 -50.240  0.00  0.00    +0.000 C 
ATOM     12  C   UNL     1      -6.229 -14.465 -49.909  0.00  0.00    +0.000 A 
ATOM     13  C   UNL     1      -5.176 -13.539 -49.921  0.00  0.00    +0.000 A 
ATOM     14  C   UNL     1      -5.391 -12.223 -50.347  0.00  0.00    +0.000 A 
ATOM     15  C   UNL     1      -6.646 -11.820 -50.805  0.00  0.00    +0.000 A 
ENDROOT
BRANCH  12  16
ATOM     16  C   UNL     1      -5.980 -15.908 -49.442  0.00  0.00    +0.000 C 
ATOM     17  O   UNL     1      -5.760 -16.792 -50.258  0.00  0.00    +0.000 OA
ATOM     18  N   UNL     1      -6.100 -16.058 -48.082  0.00  0.00    +0.000 N 
ATOM     19  C   UNL     1      -6.020 -17.201 -47.325  0.00  0.00    +0.000 A 
ATOM     20  N   UNL     1      -5.669 -18.443 -47.543  0.00  0.00    +0.000 NA
ATOM     21  C   UNL     1      -5.857 -19.193 -46.360  0.00  0.00    +0.000 A 
ATOM     22  C   UNL     1      -5.606 -20.572 -46.137  0.00  0.00    +0.000 A 
ATOM     23  C   UNL     1      -5.926 -21.161 -44.897  0.00  0.00    +0.000 A 
ATOM     24  C   UNL     1      -6.480 -20.405 -43.871  0.00  0.00    +0.000 A 
ATOM     25  C   UNL     1      -6.695 -19.041 -44.045  0.00  0.00    +0.000 A 
ATOM     26  C   UNL     1      -6.372 -18.463 -45.285  0.00  0.00    +0.000 A 
ATOM     27  S   UNL     1      -6.522 -16.821 -45.735  0.00  0.00    +0.000 S 
ATOM     28  H   UNL     1      -6.420 -15.271 -47.544  0.00  0.00    +0.000 HD
ENDBRANCH  12  16
BRANCH   2  29
ATOM     29  C   UNL     1     -11.206 -18.791 -49.264  0.00  0.00    +0.000 C 
ATOM     30  O   UNL     1     -11.119 -19.679 -50.102  0.00  0.00    +0.000 OA
BRANCH  29  31
ATOM     31  OXT UNL     1     -10.924 -18.983 -47.945  0.00  0.00    +0.000 OA
ATOM     32  HXT UNL     1     -11.209 -18.181 -47.436  0.00  0.00    +0.000 HD
ENDBRANCH  29  31
ENDBRANCH   2  29
BRANCH   1  33
ATOM     33  C   UNL     1     -14.204 -17.469 -49.574  0.00  0.00    +0.000 C 
BRANCH  33  34
ATOM     34  C   UNL     1     -14.680 -17.681 -48.133  0.00  0.00    +0.000 C 
BRANCH  34  35
ATOM     35  C   UNL     1     -14.922 -16.421 -47.291  0.00  0.00    +0.000 C 
BRANCH  35  36
ATOM     36  O   UNL     1     -16.120 -16.660 -46.539  0.00  0.00    +0.000 OA
BRANCH  36  40
ATOM     37  C   UNL     1     -19.247 -13.891 -46.179  0.00  0.00    +0.000 A 
ATOM     38  C   UNL     1     -19.398 -15.227 -45.810  0.00  0.00    +0.000 A 
ATOM     39  C   UNL     1     -18.325 -16.109 -45.958  0.00  0.00    +0.000 A 
ATOM     40  C   UNL     1     -17.085 -15.694 -46.468  0.00  0.00    +0.000 A 
ATOM     41  C   UNL     1     -16.944 -14.364 -46.853  0.00  0.00    +0.000 A 
ATOM     42  C   UNL     1     -18.021 -13.469 -46.713  0.00  0.00    +0.000 A 
ATOM     43  F   UNL     1     -18.501 -17.387 -45.587  0.00  0.00    +0.000 F 
BRANCH  37  45
ATOM     44  C   UNL     1     -21.216 -12.170 -45.854  0.00  0.00    +0.000 C 
ATOM     45  C   UNL     1     -20.319 -12.954 -46.007  0.00  0.00    +0.000 C 
BRANCH  44  46
ATOM     46  C   UNL     1     -22.280 -11.163 -45.651  0.00  0.00    +0.000 C 
BRANCH  46  48
ATOM     47  C   UNL     1     -20.744 -10.149 -44.097  0.00  0.00    +0.000 C 
ATOM     48  N   UNL     1     -21.777  -9.890 -45.106  0.00  0.00    +0.000 NA
ATOM     49  C   UNL     1     -21.225  -9.030 -46.155  0.00  0.00    +0.000 C 
ENDBRANCH  46  48
ENDBRANCH  44  46
ENDBRANCH  37  45
ENDBRANCH  36  40
ENDBRANCH  35  36
ENDBRANCH  34  35
ENDBRANCH  33  34
ENDBRANCH   1  33
TORSDOF 11
ENDMDL
