MODEL 1
REMARK VINA RESULT:    -9.678      0.000      0.000
REMARK INTER + INTRA:         -14.243
REMARK INTER:                 -12.790
REMARK INTRA:                  -1.453
REMARK UNBOUND:                -1.453
REMARK  Name = 
REMARK  7 active torsions:
REMARK  status: ('A' for Active; 'I' for Inactive)
REMARK    1  A    between atoms: C_1  and  C_2
REMARK    2  A    between atoms: C_3  and  C_18
REMARK    3  A    between atoms: N_6  and  C_7
REMARK    4  A    between atoms: C_7  and  C_8
REMARK    5  A    between atoms: CA_19  and  C_46
REMARK    6  A    between atoms: C_30  and  C_34
REMARK    7  A    between atoms: C_46  and  OXT_48
REMARK                            x       y       z     vdW  Elec       q    Type
REMARK                         _______ _______ _______ _____ _____    ______ ____
ROOT
ATOM      1  C   UNL     1     -13.586 -15.670 -49.062  0.00  0.00    +0.000 A 
ATOM      2  CA  UNL     1     -12.415 -15.502 -49.813  0.00  0.00    +0.000 A 
ATOM      3  N   UNL     1     -11.792 -14.276 -49.999  0.00  0.00    +0.000 NA
ATOM      4  C   UNL     1     -12.297 -13.174 -49.428  0.00  0.00    +0.000 A 
ATOM      5  C   UNL     1     -13.439 -13.275 -48.655  0.00  0.00    +0.000 A 
ATOM      6  C   UNL     1     -14.056 -14.510 -48.447  0.00  0.00    +0.000 A 
ATOM      7  N   UNL     1     -11.670 -11.953 -49.646  0.00  0.00    +0.000 N 
ATOM      8  C   UNL     1     -11.692 -10.961 -48.565  0.00  0.00    +0.000 C 
ATOM      9  C   UNL     1     -11.276  -9.593 -49.090  0.00  0.00    +0.000 C 
ATOM     10  C   UNL     1      -9.887  -9.680 -49.653  0.00  0.00    +0.000 A 
ATOM     11  C   UNL     1      -9.514 -10.832 -50.371  0.00  0.00    +0.000 A 
ATOM     12  C   UNL     1     -10.515 -11.968 -50.568  0.00  0.00    +0.000 C 
ATOM     13  C   UNL     1      -8.210 -10.891 -50.921  0.00  0.00    +0.000 A 
ATOM     14  C   UNL     1      -7.317  -9.824 -50.731  0.00  0.00    +0.000 A 
ATOM     15  C   UNL     1      -7.708  -8.696 -50.014  0.00  0.00    +0.000 A 
ATOM     16  C   UNL     1      -8.985  -8.613 -49.480  0.00  0.00    +0.000 A 
ENDROOT
BRANCH  13  17
ATOM     17  C   UNL     1      -7.769 -12.041 -51.773  0.00  0.00    +0.000 C 
ATOM     18  O   UNL     1      -8.039 -12.005 -52.969  0.00  0.00    +0.000 OA
ATOM     19  N   UNL     1      -7.143 -13.077 -51.101  0.00  0.00    +0.000 N 
ATOM     20  C   UNL     1      -6.807 -14.226 -51.770  0.00  0.00    +0.000 A 
ATOM     21  N   UNL     1      -6.610 -14.412 -53.048  0.00  0.00    +0.000 NA
ATOM     22  C   UNL     1      -6.892 -15.731 -53.326  0.00  0.00    +0.000 A 
ATOM     23  C   UNL     1      -7.083 -16.309 -54.583  0.00  0.00    +0.000 A 
ATOM     24  C   UNL     1      -8.013 -17.334 -54.665  0.00  0.00    +0.000 A 
ATOM     25  C   UNL     1      -8.158 -18.170 -53.569  0.00  0.00    +0.000 A 
ATOM     26  C   UNL     1      -7.530 -17.875 -52.352  0.00  0.00    +0.000 A 
ATOM     27  C   UNL     1      -7.085 -16.553 -52.210  0.00  0.00    +0.000 A 
ATOM     28  S   UNL     1      -6.723 -15.630 -50.797  0.00  0.00    +0.000 S 
ATOM     29  H   UNL     1      -7.206 -13.144 -50.096  0.00  0.00    +0.000 HD
ENDBRANCH  13  17
BRANCH   1  32
ATOM     30  C   UNL     1     -15.909 -16.990 -50.824  0.00  0.00    +0.000 C 
ATOM     31  C   UNL     1     -15.336 -17.433 -49.518  0.00  0.00    +0.000 A 
ATOM     32  C   UNL     1     -14.272 -16.917 -48.778  0.00  0.00    +0.000 A 
ATOM     33  C   UNL     1     -14.160 -17.785 -47.673  0.00  0.00    +0.000 A 
ATOM     34  N   UNL     1     -15.131 -18.695 -47.638  0.00  0.00    +0.000 NA
ATOM     35  N   UNL     1     -15.833 -18.479 -48.769  0.00  0.00    +0.000 N 
BRANCH  35  36
ATOM     36  C   UNL     1     -17.049 -19.272 -48.959  0.00  0.00    +0.000 C 
BRANCH  36  37
ATOM     37  C   UNL     1     -18.154 -19.072 -47.887  0.00  0.00    +0.000 C 
ATOM     38  C   UNL     1     -17.882 -17.828 -47.004  0.00  0.00    +0.000 C 
ATOM     39  C   UNL     1     -18.939 -17.696 -45.899  0.00  0.00    +0.000 C 
ATOM     40  C   UNL     1     -18.938 -18.980 -45.052  0.00  0.00    +0.000 C 
ATOM     41  C   UNL     1     -19.319 -20.187 -45.921  0.00  0.00    +0.000 C 
ATOM     42  C   UNL     1     -18.255 -20.339 -47.008  0.00  0.00    +0.000 C 
ATOM     43  C   UNL     1     -20.686 -19.962 -46.580  0.00  0.00    +0.000 C 
ATOM     44  C   UNL     1     -20.642 -18.700 -47.454  0.00  0.00    +0.000 C 
ATOM     45  C   UNL     1     -20.317 -17.502 -46.545  0.00  0.00    +0.000 C 
ATOM     46  C   UNL     1     -19.550 -18.857 -48.541  0.00  0.00    +0.000 C 
ENDBRANCH  36  37
ENDBRANCH  35  36
ENDBRANCH   1  32
BRANCH   2  47
ATOM     47  C   UNL     1     -11.694 -16.626 -50.521  0.00  0.00    +0.000 C 
ATOM     48  O   UNL     1     -10.690 -17.214 -50.076  0.00  0.00    +0.000 OA
BRANCH  47  49
ATOM     49  OXT UNL     1     -12.262 -16.854 -51.730  0.00  0.00    +0.000 OA
ATOM     50  HXT UNL     1     -12.269 -16.025 -52.258  0.00  0.00    +0.000 HD
ENDBRANCH  47  49
ENDBRANCH   2  47
TORSDOF 6
ENDMDL
MODEL 2
REMARK VINA RESULT:    -9.434      1.501      1.974
REMARK INTER + INTRA:         -13.920
REMARK INTER:                 -12.751
REMARK INTRA:                  -1.170
REMARK UNBOUND:                -1.453
REMARK  Name = 
REMARK  7 active torsions:
REMARK  status: ('A' for Active; 'I' for Inactive)
REMARK    1  A    between atoms: C_1  and  C_2
REMARK    2  A    between atoms: C_3  and  C_18
REMARK    3  A    between atoms: N_6  and  C_7
REMARK    4  A    between atoms: C_7  and  C_8
REMARK    5  A    between atoms: CA_19  and  C_46
REMARK    6  A    between atoms: C_30  and  C_34
REMARK    7  A    between atoms: C_46  and  OXT_48
REMARK                            x       y       z     vdW  Elec       q    Type
REMARK                         _______ _______ _______ _____ _____    ______ ____
ROOT
ATOM      1  C   UNL     1     -13.589 -15.651 -49.098  0.00  0.00    +0.000 A 
ATOM      2  CA  UNL     1     -12.387 -15.498 -49.800  0.00  0.00    +0.000 A 
ATOM      3  N   UNL     1     -11.764 -14.274 -49.997  0.00  0.00    +0.000 NA
ATOM      4  C   UNL     1     -12.300 -13.158 -49.484  0.00  0.00    +0.000 A 
ATOM      5  C   UNL     1     -13.475 -13.244 -48.760  0.00  0.00    +0.000 A 
ATOM      6  C   UNL     1     -14.094 -14.476 -48.541  0.00  0.00    +0.000 A 
ATOM      7  N   UNL     1     -11.672 -11.941 -49.712  0.00  0.00    +0.000 N 
ATOM      8  C   UNL     1     -11.748 -10.916 -48.665  0.00  0.00    +0.000 C 
ATOM      9  C   UNL     1     -11.317  -9.561 -49.214  0.00  0.00    +0.000 C 
ATOM     10  C   UNL     1      -9.904  -9.655 -49.711  0.00  0.00    +0.000 A 
ATOM     11  C   UNL     1      -9.492 -10.827 -50.375  0.00  0.00    +0.000 A 
ATOM     12  C   UNL     1     -10.476 -11.976 -50.581  0.00  0.00    +0.000 C 
ATOM     13  C   UNL     1      -8.165 -10.893 -50.864  0.00  0.00    +0.000 A 
ATOM     14  C   UNL     1      -7.287  -9.814 -50.668  0.00  0.00    +0.000 A 
ATOM     15  C   UNL     1      -7.716  -8.667 -50.005  0.00  0.00    +0.000 A 
ATOM     16  C   UNL     1      -9.017  -8.577 -49.532  0.00  0.00    +0.000 A 
ENDROOT
BRANCH  13  17
ATOM     17  C   UNL     1      -7.678 -12.066 -51.659  0.00  0.00    +0.000 C 
ATOM     18  O   UNL     1      -7.131 -12.982 -51.054  0.00  0.00    +0.000 OA
ATOM     19  N   UNL     1      -7.842 -11.967 -53.030  0.00  0.00    +0.000 N 
ATOM     20  C   UNL     1      -7.325 -12.932 -53.856  0.00  0.00    +0.000 A 
ATOM     21  N   UNL     1      -7.015 -14.172 -53.585  0.00  0.00    +0.000 NA
ATOM     22  C   UNL     1      -6.026 -14.556 -54.464  0.00  0.00    +0.000 A 
ATOM     23  C   UNL     1      -5.207 -15.685 -54.376  0.00  0.00    +0.000 A 
ATOM     24  C   UNL     1      -3.905 -15.549 -54.832  0.00  0.00    +0.000 A 
ATOM     25  C   UNL     1      -3.675 -14.697 -55.902  0.00  0.00    +0.000 A 
ATOM     26  C   UNL     1      -4.688 -13.855 -56.379  0.00  0.00    +0.000 A 
ATOM     27  C   UNL     1      -5.770 -13.662 -55.510  0.00  0.00    +0.000 A 
ATOM     28  S   UNL     1      -6.950 -12.404 -55.439  0.00  0.00    +0.000 S 
ATOM     29  H   UNL     1      -8.050 -11.076 -53.456  0.00  0.00    +0.000 HD
ENDBRANCH  13  17
BRANCH   1  32
ATOM     30  C   UNL     1     -15.894 -16.992 -50.868  0.00  0.00    +0.000 C 
ATOM     31  C   UNL     1     -15.336 -17.419 -49.550  0.00  0.00    +0.000 A 
ATOM     32  C   UNL     1     -14.280 -16.894 -48.805  0.00  0.00    +0.000 A 
ATOM     33  C   UNL     1     -14.181 -17.748 -47.688  0.00  0.00    +0.000 A 
ATOM     34  N   UNL     1     -15.153 -18.657 -47.652  0.00  0.00    +0.000 NA
ATOM     35  N   UNL     1     -15.843 -18.454 -48.793  0.00  0.00    +0.000 N 
BRANCH  35  36
ATOM     36  C   UNL     1     -17.057 -19.248 -48.987  0.00  0.00    +0.000 C 
BRANCH  36  37
ATOM     37  C   UNL     1     -18.160 -19.061 -47.910  0.00  0.00    +0.000 C 
ATOM     38  C   UNL     1     -17.882 -17.829 -47.010  0.00  0.00    +0.000 C 
ATOM     39  C   UNL     1     -18.937 -17.711 -45.901  0.00  0.00    +0.000 C 
ATOM     40  C   UNL     1     -18.938 -19.006 -45.073  0.00  0.00    +0.000 C 
ATOM     41  C   UNL     1     -19.324 -20.199 -45.958  0.00  0.00    +0.000 C 
ATOM     42  C   UNL     1     -18.263 -20.340 -47.049  0.00  0.00    +0.000 C 
ATOM     43  C   UNL     1     -20.692 -19.961 -46.610  0.00  0.00    +0.000 C 
ATOM     44  C   UNL     1     -20.646 -18.686 -47.467  0.00  0.00    +0.000 C 
ATOM     45  C   UNL     1     -20.316 -17.503 -46.542  0.00  0.00    +0.000 C 
ATOM     46  C   UNL     1     -19.557 -18.832 -48.558  0.00  0.00    +0.000 C 
ENDBRANCH  36  37
ENDBRANCH  35  36
ENDBRANCH   1  32
BRANCH   2  47
ATOM     47  C   UNL     1     -11.628 -16.639 -50.439  0.00  0.00    +0.000 C 
ATOM     48  O   UNL     1     -11.771 -17.012 -51.618  0.00  0.00    +0.000 OA
BRANCH  47  49
ATOM     49  OXT UNL     1     -10.819 -17.229 -49.525  0.00  0.00    +0.000 OA
ATOM     50  HXT UNL     1      -9.878 -17.106 -49.782  0.00  0.00    +0.000 HD
ENDBRANCH  47  49
ENDBRANCH   2  47
TORSDOF 6
ENDMDL
MODEL 3
REMARK VINA RESULT:    -9.425      2.952     10.984
REMARK INTER + INTRA:         -13.908
REMARK INTER:                 -12.962
REMARK INTRA:                  -0.946
REMARK UNBOUND:                -1.453
REMARK  Name = 
REMARK  7 active torsions:
REMARK  status: ('A' for Active; 'I' for Inactive)
REMARK    1  A    between atoms: C_1  and  C_2
REMARK    2  A    between atoms: C_3  and  C_18
REMARK    3  A    between atoms: N_6  and  C_7
REMARK    4  A    between atoms: C_7  and  C_8
REMARK    5  A    between atoms: CA_19  and  C_46
REMARK    6  A    between atoms: C_30  and  C_34
REMARK    7  A    between atoms: C_46  and  OXT_48
REMARK                            x       y       z     vdW  Elec       q    Type
REMARK                         _______ _______ _______ _____ _____    ______ ____
ROOT
ATOM      1  C   UNL     1     -13.192 -14.290 -49.057  0.00  0.00    +0.000 A 
ATOM      2  CA  UNL     1     -13.809 -15.544 -48.977  0.00  0.00    +0.000 A 
ATOM      3  N   UNL     1     -14.935 -15.798 -48.207  0.00  0.00    +0.000 NA
ATOM      4  C   UNL     1     -15.503 -14.809 -47.503  0.00  0.00    +0.000 A 
ATOM      5  C   UNL     1     -14.955 -13.541 -47.556  0.00  0.00    +0.000 A 
ATOM      6  C   UNL     1     -13.836 -13.276 -48.348  0.00  0.00    +0.000 A 
ATOM      7  N   UNL     1     -16.615 -15.091 -46.719  0.00  0.00    +0.000 N 
ATOM      8  C   UNL     1     -17.633 -14.047 -46.563  0.00  0.00    +0.000 C 
ATOM      9  C   UNL     1     -18.580 -14.393 -45.421  0.00  0.00    +0.000 C 
ATOM     10  C   UNL     1     -19.256 -15.700 -45.718  0.00  0.00    +0.000 A 
ATOM     11  C   UNL     1     -18.511 -16.729 -46.327  0.00  0.00    +0.000 A 
ATOM     12  C   UNL     1     -17.042 -16.506 -46.676  0.00  0.00    +0.000 C 
ATOM     13  C   UNL     1     -19.151 -17.967 -46.577  0.00  0.00    +0.000 A 
ATOM     14  C   UNL     1     -20.502 -18.144 -46.234  0.00  0.00    +0.000 A 
ATOM     15  C   UNL     1     -21.218 -17.110 -45.635  0.00  0.00    +0.000 A 
ATOM     16  C   UNL     1     -20.605 -15.895 -45.368  0.00  0.00    +0.000 A 
ENDROOT
BRANCH  13  17
ATOM     17  C   UNL     1     -18.405 -19.137 -47.138  0.00  0.00    +0.000 C 
ATOM     18  O   UNL     1     -18.033 -20.008 -46.358  0.00  0.00    +0.000 OA
ATOM     19  N   UNL     1     -18.151 -19.088 -48.498  0.00  0.00    +0.000 N 
ATOM     20  C   UNL     1     -17.373 -20.051 -49.088  0.00  0.00    +0.000 A 
ATOM     21  N   UNL     1     -17.114 -21.266 -48.684  0.00  0.00    +0.000 NA
ATOM     22  C   UNL     1     -15.893 -21.628 -49.208  0.00  0.00    +0.000 A 
ATOM     23  C   UNL     1     -15.098 -22.713 -48.831  0.00  0.00    +0.000 A 
ATOM     24  C   UNL     1     -13.725 -22.528 -48.881  0.00  0.00    +0.000 A 
ATOM     25  C   UNL     1     -13.214 -21.699 -49.867  0.00  0.00    +0.000 A 
ATOM     26  C   UNL     1     -14.066 -20.921 -50.662  0.00  0.00    +0.000 A 
ATOM     27  C   UNL     1     -15.367 -20.754 -50.167  0.00  0.00    +0.000 A 
ATOM     28  S   UNL     1     -16.558 -19.554 -50.507  0.00  0.00    +0.000 S 
ATOM     29  H   UNL     1     -18.253 -18.221 -49.005  0.00  0.00    +0.000 HD
ENDBRANCH  13  17
BRANCH   1  32
ATOM     30  C   UNL     1     -11.006 -12.060 -48.358  0.00  0.00    +0.000 C 
ATOM     31  C   UNL     1     -11.152 -12.898 -49.585  0.00  0.00    +0.000 A 
ATOM     32  C   UNL     1     -12.047 -13.927 -49.873  0.00  0.00    +0.000 A 
ATOM     33  C   UNL     1     -11.663 -14.378 -51.152  0.00  0.00    +0.000 A 
ATOM     34  N   UNL     1     -10.698 -13.634 -51.688  0.00  0.00    +0.000 NA
ATOM     35  N   UNL     1     -10.388 -12.744 -50.723  0.00  0.00    +0.000 N 
BRANCH  35  36
ATOM     36  C   UNL     1      -9.414 -11.706 -51.064  0.00  0.00    +0.000 C 
BRANCH  36  37
ATOM     37  C   UNL     1      -7.944 -12.186 -51.207  0.00  0.00    +0.000 C 
ATOM     38  C   UNL     1      -7.685 -13.490 -50.410  0.00  0.00    +0.000 C 
ATOM     39  C   UNL     1      -6.209 -13.902 -50.496  0.00  0.00    +0.000 C 
ATOM     40  C   UNL     1      -5.338 -12.752 -49.963  0.00  0.00    +0.000 C 
ATOM     41  C   UNL     1      -5.525 -11.501 -50.833  0.00  0.00    +0.000 C 
ATOM     42  C   UNL     1      -6.988 -11.070 -50.731  0.00  0.00    +0.000 C 
ATOM     43  C   UNL     1      -5.191 -11.812 -52.297  0.00  0.00    +0.000 C 
ATOM     44  C   UNL     1      -6.106 -12.932 -52.814  0.00  0.00    +0.000 C 
ATOM     45  C   UNL     1      -5.853 -14.186 -51.961  0.00  0.00    +0.000 C 
ATOM     46  C   UNL     1      -7.586 -12.493 -52.691  0.00  0.00    +0.000 C 
ENDBRANCH  36  37
ENDBRANCH  35  36
ENDBRANCH   1  32
BRANCH   2  47
ATOM     47  C   UNL     1     -13.323 -16.776 -49.707  0.00  0.00    +0.000 C 
ATOM     48  O   UNL     1     -13.812 -17.210 -50.767  0.00  0.00    +0.000 OA
BRANCH  47  49
ATOM     49  OXT UNL     1     -12.323 -17.367 -49.007  0.00  0.00    +0.000 OA
ATOM     50  HXT UNL     1     -12.672 -18.146 -48.519  0.00  0.00    +0.000 HD
ENDBRANCH  47  49
ENDBRANCH   2  47
TORSDOF 6
ENDMDL
MODEL 4
REMARK VINA RESULT:    -9.278      3.951     12.110
REMARK INTER + INTRA:         -13.713
REMARK INTER:                 -12.068
REMARK INTRA:                  -1.645
REMARK UNBOUND:                -1.453
REMARK  Name = 
REMARK  7 active torsions:
REMARK  status: ('A' for Active; 'I' for Inactive)
REMARK    1  A    between atoms: C_1  and  C_2
REMARK    2  A    between atoms: C_3  and  C_18
REMARK    3  A    between atoms: N_6  and  C_7
REMARK    4  A    between atoms: C_7  and  C_8
REMARK    5  A    between atoms: CA_19  and  C_46
REMARK    6  A    between atoms: C_30  and  C_34
REMARK    7  A    between atoms: C_46  and  OXT_48
REMARK                            x       y       z     vdW  Elec       q    Type
REMARK                         _______ _______ _______ _____ _____    ______ ____
ROOT
ATOM      1  C   UNL     1      -7.837 -10.228 -51.282  0.00  0.00    +0.000 A 
ATOM      2  CA  UNL     1      -7.711 -11.496 -50.702  0.00  0.00    +0.000 A 
ATOM      3  N   UNL     1      -8.760 -12.168 -50.091  0.00  0.00    +0.000 NA
ATOM      4  C   UNL     1      -9.980 -11.614 -50.053  0.00  0.00    +0.000 A 
ATOM      5  C   UNL     1     -10.177 -10.372 -50.628  0.00  0.00    +0.000 A 
ATOM      6  C   UNL     1      -9.128  -9.703 -51.263  0.00  0.00    +0.000 A 
ATOM      7  N   UNL     1     -11.011 -12.294 -49.417  0.00  0.00    +0.000 N 
ATOM      8  C   UNL     1     -12.370 -12.143 -49.947  0.00  0.00    +0.000 C 
ATOM      9  C   UNL     1     -13.393 -12.661 -48.944  0.00  0.00    +0.000 C 
ATOM     10  C   UNL     1     -13.128 -14.113 -48.672  0.00  0.00    +0.000 A 
ATOM     11  C   UNL     1     -11.794 -14.557 -48.582  0.00  0.00    +0.000 A 
ATOM     12  C   UNL     1     -10.645 -13.567 -48.761  0.00  0.00    +0.000 C 
ATOM     13  C   UNL     1     -11.556 -15.923 -48.297  0.00  0.00    +0.000 A 
ATOM     14  C   UNL     1     -12.636 -16.806 -48.127  0.00  0.00    +0.000 A 
ATOM     15  C   UNL     1     -13.946 -16.344 -48.224  0.00  0.00    +0.000 A 
ATOM     16  C   UNL     1     -14.200 -15.007 -48.488  0.00  0.00    +0.000 A 
ENDROOT
BRANCH  13  17
ATOM     17  C   UNL     1     -10.170 -16.453 -48.096  0.00  0.00    +0.000 C 
ATOM     18  O   UNL     1      -9.768 -16.586 -46.944  0.00  0.00    +0.000 OA
ATOM     19  N   UNL     1      -9.446 -16.686 -49.252  0.00  0.00    +0.000 N 
ATOM     20  C   UNL     1      -8.128 -17.059 -49.176  0.00  0.00    +0.000 A 
ATOM     21  N   UNL     1      -7.486 -17.626 -48.189  0.00  0.00    +0.000 NA
ATOM     22  C   UNL     1      -6.159 -17.272 -48.298  0.00  0.00    +0.000 A 
ATOM     23  C   UNL     1      -5.163 -17.415 -47.329  0.00  0.00    +0.000 A 
ATOM     24  C   UNL     1      -4.188 -16.430 -47.285  0.00  0.00    +0.000 A 
ATOM     25  C   UNL     1      -3.813 -15.831 -48.478  0.00  0.00    +0.000 A 
ATOM     26  C   UNL     1      -4.527 -16.072 -49.658  0.00  0.00    +0.000 A 
ATOM     27  C   UNL     1      -5.805 -16.623 -49.487  0.00  0.00    +0.000 A 
ATOM     28  S   UNL     1      -7.177 -16.638 -50.533  0.00  0.00    +0.000 S 
ATOM     29  H   UNL     1      -9.752 -16.298 -50.133  0.00  0.00    +0.000 HD
ENDBRANCH  13  17
BRANCH   1  32
ATOM     30  C   UNL     1      -5.693  -8.264 -49.943  0.00  0.00    +0.000 C 
ATOM     31  C   UNL     1      -5.935  -8.568 -51.385  0.00  0.00    +0.000 A 
ATOM     32  C   UNL     1      -6.807  -9.479 -51.981  0.00  0.00    +0.000 A 
ATOM     33  C   UNL     1      -6.547  -9.362 -53.361  0.00  0.00    +0.000 A 
ATOM     34  N   UNL     1      -5.683  -8.388 -53.637  0.00  0.00    +0.000 NA
ATOM     35  N   UNL     1      -5.310  -7.919 -52.429  0.00  0.00    +0.000 N 
BRANCH  35  36
ATOM     36  C   UNL     1      -4.430  -6.750 -52.412  0.00  0.00    +0.000 C 
BRANCH  36  37
ATOM     37  C   UNL     1      -5.137  -5.376 -52.573  0.00  0.00    +0.000 C 
ATOM     38  C   UNL     1      -6.508  -5.514 -53.281  0.00  0.00    +0.000 C 
ATOM     39  C   UNL     1      -7.151  -4.139 -53.506  0.00  0.00    +0.000 C 
ATOM     40  C   UNL     1      -6.192  -3.268 -54.333  0.00  0.00    +0.000 C 
ATOM     41  C   UNL     1      -4.881  -3.050 -53.566  0.00  0.00    +0.000 C 
ATOM     42  C   UNL     1      -4.221  -4.414 -53.363  0.00  0.00    +0.000 C 
ATOM     43  C   UNL     1      -5.159  -2.415 -52.198  0.00  0.00    +0.000 C 
ATOM     44  C   UNL     1      -6.083  -3.328 -51.378  0.00  0.00    +0.000 C 
ATOM     45  C   UNL     1      -7.408  -3.478 -52.144  0.00  0.00    +0.000 C 
ATOM     46  C   UNL     1      -5.414  -4.712 -51.192  0.00  0.00    +0.000 C 
ENDBRANCH  36  37
ENDBRANCH  35  36
ENDBRANCH   1  32
BRANCH   2  47
ATOM     47  C   UNL     1      -6.421 -12.284 -50.657  0.00  0.00    +0.000 C 
ATOM     48  O   UNL     1      -5.460 -12.026 -49.908  0.00  0.00    +0.000 OA
BRANCH  47  49
ATOM     49  OXT UNL     1      -6.444 -13.266 -51.590  0.00  0.00    +0.000 OA
ATOM     50  HXT UNL     1      -7.329 -13.693 -51.605  0.00  0.00    +0.000 HD
ENDBRANCH  47  49
ENDBRANCH   2  47
TORSDOF 6
ENDMDL
MODEL 5
REMARK VINA RESULT:    -8.922      4.448     13.141
REMARK INTER + INTRA:         -13.244
REMARK INTER:                 -12.312
REMARK INTRA:                  -0.932
REMARK UNBOUND:                -1.453
REMARK  Name = 
REMARK  7 active torsions:
REMARK  status: ('A' for Active; 'I' for Inactive)
REMARK    1  A    between atoms: C_1  and  C_2
REMARK    2  A    between atoms: C_3  and  C_18
REMARK    3  A    between atoms: N_6  and  C_7
REMARK    4  A    between atoms: C_7  and  C_8
REMARK    5  A    between atoms: CA_19  and  C_46
REMARK    6  A    between atoms: C_30  and  C_34
REMARK    7  A    between atoms: C_46  and  OXT_48
REMARK                            x       y       z     vdW  Elec       q    Type
REMARK                         _______ _______ _______ _____ _____    ______ ____
ROOT
ATOM      1  C   UNL     1      -5.981  -9.009 -50.929  0.00  0.00    +0.000 A 
ATOM      2  CA  UNL     1      -7.076  -9.843 -50.672  0.00  0.00    +0.000 A 
ATOM      3  N   UNL     1      -6.991 -11.228 -50.628  0.00  0.00    +0.000 NA
ATOM      4  C   UNL     1      -5.811 -11.834 -50.817  0.00  0.00    +0.000 A 
ATOM      5  C   UNL     1      -4.686 -11.066 -51.054  0.00  0.00    +0.000 A 
ATOM      6  C   UNL     1      -4.763  -9.671 -51.076  0.00  0.00    +0.000 A 
ATOM      7  N   UNL     1      -5.753 -13.222 -50.793  0.00  0.00    +0.000 N 
ATOM      8  C   UNL     1      -4.537 -13.855 -50.272  0.00  0.00    +0.000 C 
ATOM      9  C   UNL     1      -4.508 -15.334 -50.637  0.00  0.00    +0.000 C 
ATOM     10  C   UNL     1      -5.709 -16.012 -50.044  0.00  0.00    +0.000 A 
ATOM     11  C   UNL     1      -6.942 -15.331 -50.037  0.00  0.00    +0.000 A 
ATOM     12  C   UNL     1      -7.043 -13.926 -50.625  0.00  0.00    +0.000 C 
ATOM     13  C   UNL     1      -8.074 -15.992 -49.501  0.00  0.00    +0.000 A 
ATOM     14  C   UNL     1      -7.950 -17.290 -48.977  0.00  0.00    +0.000 A 
ATOM     15  C   UNL     1      -6.719 -17.941 -48.993  0.00  0.00    +0.000 A 
ATOM     16  C   UNL     1      -5.602 -17.317 -49.527  0.00  0.00    +0.000 A 
ENDROOT
BRANCH  13  17
ATOM     17  C   UNL     1      -9.436 -15.372 -49.539  0.00  0.00    +0.000 C 
ATOM     18  O   UNL     1      -9.562 -14.236 -49.094  0.00  0.00    +0.000 OA
ATOM     19  N   UNL     1     -10.448 -16.182 -50.026  0.00  0.00    +0.000 N 
ATOM     20  C   UNL     1     -11.750 -15.751 -49.993  0.00  0.00    +0.000 A 
ATOM     21  N   UNL     1     -12.216 -14.532 -49.935  0.00  0.00    +0.000 NA
ATOM     22  C   UNL     1     -13.454 -14.588 -49.334  0.00  0.00    +0.000 A 
ATOM     23  C   UNL     1     -14.194 -13.520 -48.821  0.00  0.00    +0.000 A 
ATOM     24  C   UNL     1     -14.956 -13.774 -47.691  0.00  0.00    +0.000 A 
ATOM     25  C   UNL     1     -15.508 -15.037 -47.547  0.00  0.00    +0.000 A 
ATOM     26  C   UNL     1     -15.151 -16.079 -48.413  0.00  0.00    +0.000 A 
ATOM     27  C   UNL     1     -13.976 -15.873 -49.151  0.00  0.00    +0.000 A 
ATOM     28  S   UNL     1     -12.921 -16.995 -49.928  0.00  0.00    +0.000 S 
ATOM     29  H   UNL     1     -10.306 -17.177 -50.115  0.00  0.00    +0.000 HD
ENDBRANCH  13  17
BRANCH   1  32
ATOM     30  C   UNL     1      -5.514  -7.150 -53.492  0.00  0.00    +0.000 C 
ATOM     31  C   UNL     1      -5.688  -6.768 -52.059  0.00  0.00    +0.000 A 
ATOM     32  C   UNL     1      -5.972  -7.557 -50.944  0.00  0.00    +0.000 A 
ATOM     33  C   UNL     1      -6.080  -6.636 -49.882  0.00  0.00    +0.000 A 
ATOM     34  N   UNL     1      -5.774  -5.394 -50.250  0.00  0.00    +0.000 NA
ATOM     35  N   UNL     1      -5.547  -5.484 -51.577  0.00  0.00    +0.000 N 
BRANCH  35  36
ATOM     36  C   UNL     1      -5.078  -4.275 -52.255  0.00  0.00    +0.000 C 
BRANCH  36  37
ATOM     37  C   UNL     1      -6.167  -3.210 -52.557  0.00  0.00    +0.000 C 
ATOM     38  C   UNL     1      -7.590  -3.824 -52.549  0.00  0.00    +0.000 C 
ATOM     39  C   UNL     1      -8.643  -2.774 -52.932  0.00  0.00    +0.000 C 
ATOM     40  C   UNL     1      -8.299  -2.204 -54.318  0.00  0.00    +0.000 C 
ATOM     41  C   UNL     1      -6.934  -1.503 -54.278  0.00  0.00    +0.000 C 
ATOM     42  C   UNL     1      -5.877  -2.549 -53.924  0.00  0.00    +0.000 C 
ATOM     43  C   UNL     1      -6.930  -0.399 -53.213  0.00  0.00    +0.000 C 
ATOM     44  C   UNL     1      -7.232  -1.006 -51.833  0.00  0.00    +0.000 C 
ATOM     45  C   UNL     1      -8.628  -1.648 -51.890  0.00  0.00    +0.000 C 
ATOM     46  C   UNL     1      -6.166  -2.076 -51.491  0.00  0.00    +0.000 C 
ENDBRANCH  36  37
ENDBRANCH  35  36
ENDBRANCH   1  32
BRANCH   2  47
ATOM     47  C   UNL     1      -8.481  -9.345 -50.422  0.00  0.00    +0.000 C 
ATOM     48  O   UNL     1      -8.809  -8.589 -49.489  0.00  0.00    +0.000 OA
BRANCH  47  49
ATOM     49  OXT UNL     1      -9.335  -9.893 -51.322  0.00  0.00    +0.000 OA
ATOM     50  HXT UNL     1      -9.709 -10.728 -50.963  0.00  0.00    +0.000 HD
ENDBRANCH  47  49
ENDBRANCH   2  47
TORSDOF 6
ENDMDL
MODEL 6
REMARK VINA RESULT:    -8.823      1.758      2.709
REMARK INTER + INTRA:         -13.112
REMARK INTER:                 -11.206
REMARK INTRA:                  -1.906
REMARK UNBOUND:                -1.453
REMARK  Name = 
REMARK  7 active torsions:
REMARK  status: ('A' for Active; 'I' for Inactive)
REMARK    1  A    between atoms: C_1  and  C_2
REMARK    2  A    between atoms: C_3  and  C_18
REMARK    3  A    between atoms: N_6  and  C_7
REMARK    4  A    between atoms: C_7  and  C_8
REMARK    5  A    between atoms: CA_19  and  C_46
REMARK    6  A    between atoms: C_30  and  C_34
REMARK    7  A    between atoms: C_46  and  OXT_48
REMARK                            x       y       z     vdW  Elec       q    Type
REMARK                         _______ _______ _______ _____ _____    ______ ____
ROOT
ATOM      1  C   UNL     1     -13.195 -14.830 -48.914  0.00  0.00    +0.000 A 
ATOM      2  CA  UNL     1     -11.941 -14.855 -49.537  0.00  0.00    +0.000 A 
ATOM      3  N   UNL     1     -11.207 -13.714 -49.829  0.00  0.00    +0.000 NA
ATOM      4  C   UNL     1     -11.683 -12.506 -49.494  0.00  0.00    +0.000 A 
ATOM      5  C   UNL     1     -12.906 -12.414 -48.856  0.00  0.00    +0.000 A 
ATOM      6  C   UNL     1     -13.637 -13.562 -48.540  0.00  0.00    +0.000 A 
ATOM      7  N   UNL     1     -10.943 -11.376 -49.817  0.00  0.00    +0.000 N 
ATOM      8  C   UNL     1     -11.003 -10.227 -48.908  0.00  0.00    +0.000 C 
ATOM      9  C   UNL     1     -10.428  -8.986 -49.579  0.00  0.00    +0.000 C 
ATOM     10  C   UNL     1      -8.997  -9.245 -49.953  0.00  0.00    +0.000 A 
ATOM     11  C   UNL     1      -8.640 -10.517 -50.441  0.00  0.00    +0.000 A 
ATOM     12  C   UNL     1      -9.699 -11.607 -50.583  0.00  0.00    +0.000 C 
ATOM     13  C   UNL     1      -7.293 -10.741 -50.817  0.00  0.00    +0.000 A 
ATOM     14  C   UNL     1      -6.344  -9.713 -50.685  0.00  0.00    +0.000 A 
ATOM     15  C   UNL     1      -6.721  -8.464 -50.197  0.00  0.00    +0.000 A 
ATOM     16  C   UNL     1      -8.038  -8.220 -49.837  0.00  0.00    +0.000 A 
ENDROOT
BRANCH  13  17
ATOM     17  C   UNL     1      -6.854 -12.035 -51.429  0.00  0.00    +0.000 C 
ATOM     18  O   UNL     1      -6.756 -12.088 -52.650  0.00  0.00    +0.000 OA
ATOM     19  N   UNL     1      -6.658 -13.079 -50.541  0.00  0.00    +0.000 N 
ATOM     20  C   UNL     1      -6.370 -14.336 -51.010  0.00  0.00    +0.000 A 
ATOM     21  N   UNL     1      -5.854 -14.692 -52.156  0.00  0.00    +0.000 NA
ATOM     22  C   UNL     1      -6.290 -15.969 -52.431  0.00  0.00    +0.000 A 
ATOM     23  C   UNL     1      -6.218 -16.644 -53.652  0.00  0.00    +0.000 A 
ATOM     24  C   UNL     1      -7.263 -17.503 -53.953  0.00  0.00    +0.000 A 
ATOM     25  C   UNL     1      -7.876 -18.176 -52.908  0.00  0.00    +0.000 A 
ATOM     26  C   UNL     1      -7.580 -17.856 -51.577  0.00  0.00    +0.000 A 
ATOM     27  C   UNL     1      -6.950 -16.618 -51.381  0.00  0.00    +0.000 A 
ATOM     28  S   UNL     1      -6.840 -15.617 -49.980  0.00  0.00    +0.000 S 
ATOM     29  H   UNL     1      -7.019 -13.023 -49.600  0.00  0.00    +0.000 HD
ENDBRANCH  13  17
BRANCH   1  32
ATOM     30  C   UNL     1     -15.154 -16.487 -50.828  0.00  0.00    +0.000 C 
ATOM     31  C   UNL     1     -14.910 -16.631 -49.362  0.00  0.00    +0.000 A 
ATOM     32  C   UNL     1     -14.004 -15.973 -48.529  0.00  0.00    +0.000 A 
ATOM     33  C   UNL     1     -14.191 -16.571 -47.267  0.00  0.00    +0.000 A 
ATOM     34  N   UNL     1     -15.201 -17.438 -47.257  0.00  0.00    +0.000 NA
ATOM     35  N   UNL     1     -15.624 -17.475 -48.537  0.00  0.00    +0.000 N 
BRANCH  35  36
ATOM     36  C   UNL     1     -16.815 -18.275 -48.822  0.00  0.00    +0.000 C 
BRANCH  36  37
ATOM     37  C   UNL     1     -16.550 -19.670 -49.450  0.00  0.00    +0.000 C 
ATOM     38  C   UNL     1     -15.081 -20.122 -49.250  0.00  0.00    +0.000 C 
ATOM     39  C   UNL     1     -14.819 -21.463 -49.950  0.00  0.00    +0.000 C 
ATOM     40  C   UNL     1     -15.150 -21.320 -51.445  0.00  0.00    +0.000 C 
ATOM     41  C   UNL     1     -16.637 -20.981 -51.626  0.00  0.00    +0.000 C 
ATOM     42  C   UNL     1     -16.899 -19.633 -50.955  0.00  0.00    +0.000 C 
ATOM     43  C   UNL     1     -17.514 -22.053 -50.968  0.00  0.00    +0.000 C 
ATOM     44  C   UNL     1     -17.192 -22.142 -49.468  0.00  0.00    +0.000 C 
ATOM     45  C   UNL     1     -15.714 -22.539 -49.321  0.00  0.00    +0.000 C 
ATOM     46  C   UNL     1     -17.444 -20.767 -48.800  0.00  0.00    +0.000 C 
ENDBRANCH  36  37
ENDBRANCH  35  36
ENDBRANCH   1  32
BRANCH   2  47
ATOM     47  C   UNL     1     -11.238 -16.119 -49.977  0.00  0.00    +0.000 C 
ATOM     48  O   UNL     1     -10.410 -16.744 -49.290  0.00  0.00    +0.000 OA
BRANCH  47  49
ATOM     49  OXT UNL     1     -11.594 -16.431 -51.248  0.00  0.00    +0.000 OA
ATOM     50  HXT UNL     1     -11.296 -17.342 -51.465  0.00  0.00    +0.000 HD
ENDBRANCH  47  49
ENDBRANCH   2  47
TORSDOF 6
ENDMDL
MODEL 7
REMARK VINA RESULT:    -8.685      2.345      3.700
REMARK INTER + INTRA:         -12.930
REMARK INTER:                 -11.406
REMARK INTRA:                  -1.524
REMARK UNBOUND:                -1.453
REMARK  Name = 
REMARK  7 active torsions:
REMARK  status: ('A' for Active; 'I' for Inactive)
REMARK    1  A    between atoms: C_1  and  C_2
REMARK    2  A    between atoms: C_3  and  C_18
REMARK    3  A    between atoms: N_6  and  C_7
REMARK    4  A    between atoms: C_7  and  C_8
REMARK    5  A    between atoms: CA_19  and  C_46
REMARK    6  A    between atoms: C_30  and  C_34
REMARK    7  A    between atoms: C_46  and  OXT_48
REMARK                            x       y       z     vdW  Elec       q    Type
REMARK                         _______ _______ _______ _____ _____    ______ ____
ROOT
ATOM      1  C   UNL     1     -12.761 -12.913 -48.819  0.00  0.00    +0.000 A 
ATOM      2  CA  UNL     1     -11.979 -13.042 -49.973  0.00  0.00    +0.000 A 
ATOM      3  N   UNL     1     -11.033 -12.105 -50.367  0.00  0.00    +0.000 NA
ATOM      4  C   UNL     1     -10.814 -11.017 -49.617  0.00  0.00    +0.000 A 
ATOM      5  C   UNL     1     -11.539 -10.841 -48.452  0.00  0.00    +0.000 A 
ATOM      6  C   UNL     1     -12.476 -11.792 -48.041  0.00  0.00    +0.000 A 
ATOM      7  N   UNL     1      -9.880 -10.081 -50.041  0.00  0.00    +0.000 N 
ATOM      8  C   UNL     1      -9.113  -9.356 -49.022  0.00  0.00    +0.000 C 
ATOM      9  C   UNL     1      -8.409  -8.155 -49.639  0.00  0.00    +0.000 C 
ATOM     10  C   UNL     1      -7.475  -8.628 -50.715  0.00  0.00    +0.000 A 
ATOM     11  C   UNL     1      -7.877  -9.690 -51.548  0.00  0.00    +0.000 A 
ATOM     12  C   UNL     1      -9.244 -10.341 -51.351  0.00  0.00    +0.000 C 
ATOM     13  C   UNL     1      -7.000 -10.109 -52.577  0.00  0.00    +0.000 A 
ATOM     14  C   UNL     1      -5.753  -9.482 -52.739  0.00  0.00    +0.000 A 
ATOM     15  C   UNL     1      -5.376  -8.436 -51.900  0.00  0.00    +0.000 A 
ATOM     16  C   UNL     1      -6.227  -8.001 -50.896  0.00  0.00    +0.000 A 
ENDROOT
BRANCH  13  17
ATOM     17  C   UNL     1      -7.391 -11.169 -53.560  0.00  0.00    +0.000 C 
ATOM     18  O   UNL     1      -7.975 -10.817 -54.580  0.00  0.00    +0.000 OA
ATOM     19  N   UNL     1      -7.106 -12.470 -53.182  0.00  0.00    +0.000 N 
ATOM     20  C   UNL     1      -7.529 -13.520 -53.956  0.00  0.00    +0.000 A 
ATOM     21  N   UNL     1      -7.841 -13.539 -55.225  0.00  0.00    +0.000 NA
ATOM     22  C   UNL     1      -8.739 -14.564 -55.418  0.00  0.00    +0.000 A 
ATOM     23  C   UNL     1      -9.543 -14.786 -56.539  0.00  0.00    +0.000 A 
ATOM     24  C   UNL     1     -10.800 -15.322 -56.311  0.00  0.00    +0.000 A 
ATOM     25  C   UNL     1     -10.948 -16.211 -55.257  0.00  0.00    +0.000 A 
ATOM     26  C   UNL     1      -9.910 -16.411 -54.336  0.00  0.00    +0.000 A 
ATOM     27  C   UNL     1      -8.914 -15.424 -54.328  0.00  0.00    +0.000 A 
ATOM     28  S   UNL     1      -7.768 -14.989 -53.114  0.00  0.00    +0.000 S 
ATOM     29  H   UNL     1      -6.876 -12.683 -52.222  0.00  0.00    +0.000 HD
ENDBRANCH  13  17
BRANCH   1  32
ATOM     30  C   UNL     1     -12.157 -15.916 -47.892  0.00  0.00    +0.000 C 
ATOM     31  C   UNL     1     -13.460 -15.193 -47.986  0.00  0.00    +0.000 A 
ATOM     32  C   UNL     1     -13.733 -13.864 -48.310  0.00  0.00    +0.000 A 
ATOM     33  C   UNL     1     -15.132 -13.751 -48.174  0.00  0.00    +0.000 A 
ATOM     34  N   UNL     1     -15.716 -14.918 -47.910  0.00  0.00    +0.000 NA
ATOM     35  N   UNL     1     -14.690 -15.785 -47.788  0.00  0.00    +0.000 N 
BRANCH  35  36
ATOM     36  C   UNL     1     -15.031 -17.196 -47.599  0.00  0.00    +0.000 C 
BRANCH  36  37
ATOM     37  C   UNL     1     -15.446 -17.963 -48.884  0.00  0.00    +0.000 C 
ATOM     38  C   UNL     1     -14.647 -19.280 -49.052  0.00  0.00    +0.000 C 
ATOM     39  C   UNL     1     -15.012 -19.980 -50.369  0.00  0.00    +0.000 C 
ATOM     40  C   UNL     1     -14.738 -19.019 -51.538  0.00  0.00    +0.000 C 
ATOM     41  C   UNL     1     -15.620 -17.769 -51.413  0.00  0.00    +0.000 C 
ATOM     42  C   UNL     1     -15.243 -17.053 -50.117  0.00  0.00    +0.000 C 
ATOM     43  C   UNL     1     -17.102 -18.163 -51.360  0.00  0.00    +0.000 C 
ATOM     44  C   UNL     1     -17.353 -19.086 -50.157  0.00  0.00    +0.000 C 
ATOM     45  C   UNL     1     -16.500 -20.352 -50.342  0.00  0.00    +0.000 C 
ATOM     46  C   UNL     1     -16.952 -18.358 -48.851  0.00  0.00    +0.000 C 
ENDBRANCH  36  37
ENDBRANCH  35  36
ENDBRANCH   1  32
BRANCH   2  47
ATOM     47  C   UNL     1     -12.072 -14.204 -50.936  0.00  0.00    +0.000 C 
ATOM     48  O   UNL     1     -13.132 -14.624 -51.438  0.00  0.00    +0.000 OA
BRANCH  47  49
ATOM     49  OXT UNL     1     -10.847 -14.754 -51.121  0.00  0.00    +0.000 OA
ATOM     50  HXT UNL     1     -10.852 -15.690 -50.822  0.00  0.00    +0.000 HD
ENDBRANCH  47  49
ENDBRANCH   2  47
TORSDOF 6
ENDMDL
MODEL 8
REMARK VINA RESULT:    -8.586      3.863     11.429
REMARK INTER + INTRA:         -12.800
REMARK INTER:                 -11.269
REMARK INTRA:                  -1.530
REMARK UNBOUND:                -1.453
REMARK  Name = 
REMARK  7 active torsions:
REMARK  status: ('A' for Active; 'I' for Inactive)
REMARK    1  A    between atoms: C_1  and  C_2
REMARK    2  A    between atoms: C_3  and  C_18
REMARK    3  A    between atoms: N_6  and  C_7
REMARK    4  A    between atoms: C_7  and  C_8
REMARK    5  A    between atoms: CA_19  and  C_46
REMARK    6  A    between atoms: C_30  and  C_34
REMARK    7  A    between atoms: C_46  and  OXT_48
REMARK                            x       y       z     vdW  Elec       q    Type
REMARK                         _______ _______ _______ _____ _____    ______ ____
ROOT
ATOM      1  C   UNL     1     -14.410 -15.488 -47.781  0.00  0.00    +0.000 A 
ATOM      2  CA  UNL     1     -15.455 -16.419 -47.752  0.00  0.00    +0.000 A 
ATOM      3  N   UNL     1     -16.713 -16.146 -47.233  0.00  0.00    +0.000 NA
ATOM      4  C   UNL     1     -16.985 -14.929 -46.742  0.00  0.00    +0.000 A 
ATOM      5  C   UNL     1     -16.002 -13.956 -46.761  0.00  0.00    +0.000 A 
ATOM      6  C   UNL     1     -14.743 -14.222 -47.303  0.00  0.00    +0.000 A 
ATOM      7  N   UNL     1     -18.243 -14.683 -46.205  0.00  0.00    +0.000 N 
ATOM      8  C   UNL     1     -18.806 -13.336 -46.350  0.00  0.00    +0.000 C 
ATOM      9  C   UNL     1     -20.001 -13.156 -45.423  0.00  0.00    +0.000 C 
ATOM     10  C   UNL     1     -21.053 -14.170 -45.770  0.00  0.00    +0.000 A 
ATOM     11  C   UNL     1     -20.652 -15.472 -46.128  0.00  0.00    +0.000 A 
ATOM     12  C   UNL     1     -19.169 -15.834 -46.159  0.00  0.00    +0.000 C 
ATOM     13  C   UNL     1     -21.653 -16.428 -46.426  0.00  0.00    +0.000 A 
ATOM     14  C   UNL     1     -23.010 -16.065 -46.377  0.00  0.00    +0.000 A 
ATOM     15  C   UNL     1     -23.381 -14.771 -46.024  0.00  0.00    +0.000 A 
ATOM     16  C   UNL     1     -22.416 -13.824 -45.714  0.00  0.00    +0.000 A 
ENDROOT
BRANCH  13  17
ATOM     17  C   UNL     1     -21.312 -17.855 -46.726  0.00  0.00    +0.000 C 
ATOM     18  O   UNL     1     -20.819 -18.528 -45.827  0.00  0.00    +0.000 OA
ATOM     19  N   UNL     1     -21.535 -18.261 -48.030  0.00  0.00    +0.000 N 
ATOM     20  C   UNL     1     -21.147 -19.511 -48.438  0.00  0.00    +0.000 A 
ATOM     21  N   UNL     1     -20.934 -20.584 -47.723  0.00  0.00    +0.000 NA
ATOM     22  C   UNL     1     -20.028 -21.366 -48.405  0.00  0.00    +0.000 A 
ATOM     23  C   UNL     1     -19.309 -22.456 -47.909  0.00  0.00    +0.000 A 
ATOM     24  C   UNL     1     -18.025 -22.633 -48.400  0.00  0.00    +0.000 A 
ATOM     25  C   UNL     1     -17.774 -22.270 -49.714  0.00  0.00    +0.000 A 
ATOM     26  C   UNL     1     -18.731 -21.572 -50.461  0.00  0.00    +0.000 A 
ATOM     27  C   UNL     1     -19.748 -20.959 -49.715  0.00  0.00    +0.000 A 
ATOM     28  S   UNL     1     -20.807 -19.655 -50.107  0.00  0.00    +0.000 S 
ATOM     29  H   UNL     1     -21.685 -17.577 -48.759  0.00  0.00    +0.000 HD
ENDBRANCH  13  17
BRANCH   1  32
ATOM     30  C   UNL     1     -13.534 -14.830 -50.788  0.00  0.00    +0.000 C 
ATOM     31  C   UNL     1     -12.748 -15.455 -49.683  0.00  0.00    +0.000 A 
ATOM     32  C   UNL     1     -13.087 -15.676 -48.348  0.00  0.00    +0.000 A 
ATOM     33  C   UNL     1     -11.926 -16.240 -47.781  0.00  0.00    +0.000 A 
ATOM     34  N   UNL     1     -10.978 -16.474 -48.686  0.00  0.00    +0.000 NA
ATOM     35  N   UNL     1     -11.484 -15.985 -49.836  0.00  0.00    +0.000 N 
BRANCH  35  36
ATOM     36  C   UNL     1     -10.699 -16.198 -51.052  0.00  0.00    +0.000 C 
BRANCH  36  37
ATOM     37  C   UNL     1      -9.531 -15.200 -51.280  0.00  0.00    +0.000 C 
ATOM     38  C   UNL     1      -9.521 -14.645 -52.727  0.00  0.00    +0.000 C 
ATOM     39  C   UNL     1      -8.312 -13.726 -52.955  0.00  0.00    +0.000 C 
ATOM     40  C   UNL     1      -7.025 -14.513 -52.660  0.00  0.00    +0.000 C 
ATOM     41  C   UNL     1      -7.002 -14.959 -51.192  0.00  0.00    +0.000 C 
ATOM     42  C   UNL     1      -8.188 -15.896 -50.964  0.00  0.00    +0.000 C 
ATOM     43  C   UNL     1      -7.130 -13.746 -50.261  0.00  0.00    +0.000 C 
ATOM     44  C   UNL     1      -8.446 -13.007 -50.548  0.00  0.00    +0.000 C 
ATOM     45  C   UNL     1      -8.413 -12.523 -52.008  0.00  0.00    +0.000 C 
ATOM     46  C   UNL     1      -9.641 -13.968 -50.333  0.00  0.00    +0.000 C 
ENDBRANCH  36  37
ENDBRANCH  35  36
ENDBRANCH   1  32
BRANCH   2  47
ATOM     47  C   UNL     1     -15.344 -17.836 -48.270  0.00  0.00    +0.000 C 
ATOM     48  O   UNL     1     -14.809 -18.775 -47.652  0.00  0.00    +0.000 OA
BRANCH  47  49
ATOM     49  OXT UNL     1     -15.854 -17.914 -49.523  0.00  0.00    +0.000 OA
ATOM     50  HXT UNL     1     -15.672 -18.802 -49.904  0.00  0.00    +0.000 HD
ENDBRANCH  47  49
ENDBRANCH   2  47
TORSDOF 6
ENDMDL
MODEL 9
REMARK VINA RESULT:    -8.522      3.062     10.688
REMARK INTER + INTRA:         -12.715
REMARK INTER:                 -10.898
REMARK INTRA:                  -1.817
REMARK UNBOUND:                -1.453
REMARK  Name = 
REMARK  7 active torsions:
REMARK  status: ('A' for Active; 'I' for Inactive)
REMARK    1  A    between atoms: C_1  and  C_2
REMARK    2  A    between atoms: C_3  and  C_18
REMARK    3  A    between atoms: N_6  and  C_7
REMARK    4  A    between atoms: C_7  and  C_8
REMARK    5  A    between atoms: CA_19  and  C_46
REMARK    6  A    between atoms: C_30  and  C_34
REMARK    7  A    between atoms: C_46  and  OXT_48
REMARK                            x       y       z     vdW  Elec       q    Type
REMARK                         _______ _______ _______ _____ _____    ______ ____
ROOT
ATOM      1  C   UNL     1     -13.344 -14.578 -48.827  0.00  0.00    +0.000 A 
ATOM      2  CA  UNL     1     -14.002 -15.812 -48.767  0.00  0.00    +0.000 A 
ATOM      3  N   UNL     1     -15.150 -16.034 -48.020  0.00  0.00    +0.000 NA
ATOM      4  C   UNL     1     -15.700 -15.032 -47.321  0.00  0.00    +0.000 A 
ATOM      5  C   UNL     1     -15.111 -13.781 -47.356  0.00  0.00    +0.000 A 
ATOM      6  C   UNL     1     -13.969 -13.548 -48.125  0.00  0.00    +0.000 A 
ATOM      7  N   UNL     1     -16.835 -15.281 -46.561  0.00  0.00    +0.000 N 
ATOM      8  C   UNL     1     -17.823 -14.205 -46.418  0.00  0.00    +0.000 C 
ATOM      9  C   UNL     1     -18.802 -14.527 -45.297  0.00  0.00    +0.000 C 
ATOM     10  C   UNL     1     -19.513 -15.811 -45.614  0.00  0.00    +0.000 A 
ATOM     11  C   UNL     1     -18.791 -16.859 -46.216  0.00  0.00    +0.000 A 
ATOM     12  C   UNL     1     -17.308 -16.682 -46.535  0.00  0.00    +0.000 C 
ATOM     13  C   UNL     1     -19.465 -18.075 -46.485  0.00  0.00    +0.000 A 
ATOM     14  C   UNL     1     -20.827 -18.210 -46.169  0.00  0.00    +0.000 A 
ATOM     15  C   UNL     1     -21.521 -17.157 -45.577  0.00  0.00    +0.000 A 
ATOM     16  C   UNL     1     -20.875 -15.964 -45.292  0.00  0.00    +0.000 A 
ENDROOT
BRANCH  13  17
ATOM     17  C   UNL     1     -18.746 -19.266 -47.039  0.00  0.00    +0.000 C 
ATOM     18  O   UNL     1     -18.448 -20.168 -46.263  0.00  0.00    +0.000 OA
ATOM     19  N   UNL     1     -18.428 -19.200 -48.385  0.00  0.00    +0.000 N 
ATOM     20  C   UNL     1     -17.667 -20.184 -48.961  0.00  0.00    +0.000 A 
ATOM     21  N   UNL     1     -17.480 -21.418 -48.574  0.00  0.00    +0.000 NA
ATOM     22  C   UNL     1     -16.253 -21.823 -49.051  0.00  0.00    +0.000 A 
ATOM     23  C   UNL     1     -15.524 -22.950 -48.663  0.00  0.00    +0.000 A 
ATOM     24  C   UNL     1     -14.144 -22.826 -48.647  0.00  0.00    +0.000 A 
ATOM     25  C   UNL     1     -13.553 -22.000 -49.590  0.00  0.00    +0.000 A 
ATOM     26  C   UNL     1     -14.333 -21.169 -50.405  0.00  0.00    +0.000 A 
ATOM     27  C   UNL     1     -15.646 -20.954 -49.965  0.00  0.00    +0.000 A 
ATOM     28  S   UNL     1     -16.768 -19.694 -50.330  0.00  0.00    +0.000 S 
ATOM     29  H   UNL     1     -18.469 -18.318 -48.876  0.00  0.00    +0.000 HD
ENDBRANCH  13  17
BRANCH   1  32
ATOM     30  C   UNL     1     -10.369 -15.649 -48.332  0.00  0.00    +0.000 C 
ATOM     31  C   UNL     1     -10.871 -14.665 -49.337  0.00  0.00    +0.000 A 
ATOM     32  C   UNL     1     -12.172 -14.248 -49.619  0.00  0.00    +0.000 A 
ATOM     33  C   UNL     1     -12.028 -13.358 -50.703  0.00  0.00    +0.000 A 
ATOM     34  N   UNL     1     -10.753 -13.128 -51.008  0.00  0.00    +0.000 NA
ATOM     35  N   UNL     1     -10.059 -13.935 -50.179  0.00  0.00    +0.000 N 
BRANCH  35  36
ATOM     36  C   UNL     1      -8.600 -13.822 -50.208  0.00  0.00    +0.000 C 
BRANCH  36  37
ATOM     37  C   UNL     1      -7.854 -14.967 -50.945  0.00  0.00    +0.000 C 
ATOM     38  C   UNL     1      -7.120 -15.908 -49.955  0.00  0.00    +0.000 C 
ATOM     39  C   UNL     1      -6.322 -16.981 -50.707  0.00  0.00    +0.000 C 
ATOM     40  C   UNL     1      -5.323 -16.292 -51.651  0.00  0.00    +0.000 C 
ATOM     41  C   UNL     1      -6.074 -15.453 -52.694  0.00  0.00    +0.000 C 
ATOM     42  C   UNL     1      -6.850 -14.364 -51.954  0.00  0.00    +0.000 C 
ATOM     43  C   UNL     1      -7.057 -16.330 -53.479  0.00  0.00    +0.000 C 
ATOM     44  C   UNL     1      -8.069 -16.969 -52.516  0.00  0.00    +0.000 C 
ATOM     45  C   UNL     1      -7.292 -17.848 -51.522  0.00  0.00    +0.000 C 
ATOM     46  C   UNL     1      -8.838 -15.859 -51.758  0.00  0.00    +0.000 C 
ENDBRANCH  36  37
ENDBRANCH  35  36
ENDBRANCH   1  32
BRANCH   2  47
ATOM     47  C   UNL     1     -13.541 -17.055 -49.495  0.00  0.00    +0.000 C 
ATOM     48  O   UNL     1     -13.656 -17.241 -50.721  0.00  0.00    +0.000 OA
BRANCH  47  49
ATOM     49  OXT UNL     1     -13.046 -17.955 -48.610  0.00  0.00    +0.000 OA
ATOM     50  HXT UNL     1     -12.068 -17.866 -48.554  0.00  0.00    +0.000 HD
ENDBRANCH  47  49
ENDBRANCH   2  47
TORSDOF 6
ENDMDL
