MODEL 1
REMARK VINA RESULT:    -8.590      0.000      0.000
REMARK INTER + INTRA:         -10.193
REMARK INTER:                  -9.846
REMARK INTRA:                  -0.347
REMARK UNBOUND:                -0.347
REMARK  Name = 
REMARK  3 active torsions:
REMARK  status: ('A' for Active; 'I' for Inactive)
REMARK    1  A    between atoms: O_1  and  C_2
REMARK    2  A    between atoms: C_2  and  C_4
REMARK    3  A    between atoms: C_7  and  C_10
REMARK                            x       y       z     vdW  Elec       q    Type
REMARK                         _______ _______ _______ _____ _____    ______ ____
ROOT
ATOM      1  C   UNL     1     -21.422  -7.982 -45.209  0.00  0.00    +0.000 A 
ATOM      2  C   UNL     1     -22.318  -8.673 -46.026  0.00  0.00    +0.000 A 
ATOM      3  C   UNL     1     -22.181 -10.057 -46.212  0.00  0.00    +0.000 A 
ATOM      4  C   UNL     1     -21.144 -10.781 -45.594  0.00  0.00    +0.000 A 
ATOM      5  C   UNL     1     -20.261 -10.057 -44.771  0.00  0.00    +0.000 A 
ATOM      6  C   UNL     1     -20.404  -8.681 -44.560  0.00  0.00    +0.000 A 
ENDROOT
BRANCH   4   7
ATOM      7  C   UNL     1     -20.984 -12.247 -45.782  0.00  0.00    +0.000 A 
ATOM      8  C   UNL     1     -19.734 -12.833 -46.049  0.00  0.00    +0.000 A 
ATOM      9  C   UNL     1     -19.592 -14.218 -46.199  0.00  0.00    +0.000 A 
ATOM     10  C   UNL     1     -20.698 -15.054 -46.074  0.00  0.00    +0.000 A 
ATOM     11  C   UNL     1     -21.948 -14.503 -45.817  0.00  0.00    +0.000 A 
ATOM     12  C   UNL     1     -22.088 -13.119 -45.684  0.00  0.00    +0.000 A 
ENDBRANCH   4   7
BRANCH   1  13
ATOM     13  C   UNL     1     -21.610  -6.521 -45.018  0.00  0.00    +0.000 C 
ATOM     14  O   UNL     1     -22.708  -5.997 -44.948  0.00  0.00    +0.000 OA
BRANCH  13  15
ATOM     15  O   UNL     1     -20.453  -5.828 -44.969  0.00  0.00    +0.000 OA
ATOM     16  H   UNL     1     -19.991  -5.735 -45.823  0.00  0.00    +0.000 HD
ENDBRANCH  13  15
ENDBRANCH   1  13
TORSDOF 3
ENDMDL
MODEL 2
REMARK VINA RESULT:    -8.569      0.066      1.242
REMARK INTER + INTRA:         -10.169
REMARK INTER:                  -9.817
REMARK INTRA:                  -0.351
REMARK UNBOUND:                -0.347
REMARK  Name = 
REMARK  3 active torsions:
REMARK  status: ('A' for Active; 'I' for Inactive)
REMARK    1  A    between atoms: O_1  and  C_2
REMARK    2  A    between atoms: C_2  and  C_4
REMARK    3  A    between atoms: C_7  and  C_10
REMARK                            x       y       z     vdW  Elec       q    Type
REMARK                         _______ _______ _______ _____ _____    ______ ____
ROOT
ATOM      1  C   UNL     1     -21.479  -7.994 -45.208  0.00  0.00    +0.000 A 
ATOM      2  C   UNL     1     -20.374  -8.651 -44.664  0.00  0.00    +0.000 A 
ATOM      3  C   UNL     1     -20.211 -10.032 -44.850  0.00  0.00    +0.000 A 
ATOM      4  C   UNL     1     -21.148 -10.791 -45.576  0.00  0.00    +0.000 A 
ATOM      5  C   UNL     1     -22.249 -10.099 -46.118  0.00  0.00    +0.000 A 
ATOM      6  C   UNL     1     -22.407  -8.717 -45.958  0.00  0.00    +0.000 A 
ENDROOT
BRANCH   4   7
ATOM      7  C   UNL     1     -20.991 -12.254 -45.781  0.00  0.00    +0.000 A 
ATOM      8  C   UNL     1     -19.743 -12.838 -46.060  0.00  0.00    +0.000 A 
ATOM      9  C   UNL     1     -19.603 -14.222 -46.226  0.00  0.00    +0.000 A 
ATOM     10  C   UNL     1     -20.709 -15.058 -46.105  0.00  0.00    +0.000 A 
ATOM     11  C   UNL     1     -21.958 -14.509 -45.836  0.00  0.00    +0.000 A 
ATOM     12  C   UNL     1     -22.096 -13.126 -45.687  0.00  0.00    +0.000 A 
ENDBRANCH   4   7
BRANCH   1  13
ATOM     13  C   UNL     1     -21.609  -6.529 -45.009  0.00  0.00    +0.000 C 
ATOM     14  O   UNL     1     -22.684  -5.964 -44.917  0.00  0.00    +0.000 OA
BRANCH  13  15
ATOM     15  O   UNL     1     -20.426  -5.879 -44.980  0.00  0.00    +0.000 OA
ATOM     16  H   UNL     1     -19.922  -5.976 -44.151  0.00  0.00    +0.000 HD
ENDBRANCH  13  15
ENDBRANCH   1  13
TORSDOF 3
ENDMDL
MODEL 3
REMARK VINA RESULT:    -7.766      4.399      6.876
REMARK INTER + INTRA:          -9.248
REMARK INTER:                  -8.909
REMARK INTRA:                  -0.339
REMARK UNBOUND:                -0.347
REMARK  Name = 
REMARK  3 active torsions:
REMARK  status: ('A' for Active; 'I' for Inactive)
REMARK    1  A    between atoms: O_1  and  C_2
REMARK    2  A    between atoms: C_2  and  C_4
REMARK    3  A    between atoms: C_7  and  C_10
REMARK                            x       y       z     vdW  Elec       q    Type
REMARK                         _______ _______ _______ _____ _____    ______ ____
ROOT
ATOM      1  C   UNL     1     -19.807 -15.477 -45.970  0.00  0.00    +0.000 A 
ATOM      2  C   UNL     1     -18.831 -14.496 -46.154  0.00  0.00    +0.000 A 
ATOM      3  C   UNL     1     -19.181 -13.138 -46.134  0.00  0.00    +0.000 A 
ATOM      4  C   UNL     1     -20.513 -12.727 -45.938  0.00  0.00    +0.000 A 
ATOM      5  C   UNL     1     -21.474 -13.739 -45.749  0.00  0.00    +0.000 A 
ATOM      6  C   UNL     1     -21.130 -15.096 -45.743  0.00  0.00    +0.000 A 
ENDROOT
BRANCH   4   7
ATOM      7  C   UNL     1     -20.902 -11.293 -45.916  0.00  0.00    +0.000 A 
ATOM      8  C   UNL     1     -21.854 -10.764 -46.805  0.00  0.00    +0.000 A 
ATOM      9  C   UNL     1     -22.230  -9.416 -46.758  0.00  0.00    +0.000 A 
ATOM     10  C   UNL     1     -21.670  -8.564 -45.810  0.00  0.00    +0.000 A 
ATOM     11  C   UNL     1     -20.721  -9.056 -44.922  0.00  0.00    +0.000 A 
ATOM     12  C   UNL     1     -20.336 -10.398 -44.983  0.00  0.00    +0.000 A 
ENDBRANCH   4   7
BRANCH   1  13
ATOM     13  C   UNL     1     -19.396 -16.904 -45.976  0.00  0.00    +0.000 C 
ATOM     14  O   UNL     1     -19.992 -17.764 -46.601  0.00  0.00    +0.000 OA
BRANCH  13  15
ATOM     15  O   UNL     1     -18.326 -17.163 -45.195  0.00  0.00    +0.000 OA
ATOM     16  H   UNL     1     -17.960 -18.063 -45.281  0.00  0.00    +0.000 HD
ENDBRANCH  13  15
ENDBRANCH   1  13
TORSDOF 3
ENDMDL
MODEL 4
REMARK VINA RESULT:    -7.662      2.364      4.107
REMARK INTER + INTRA:          -9.129
REMARK INTER:                  -8.760
REMARK INTRA:                  -0.369
REMARK UNBOUND:                -0.347
REMARK  Name = 
REMARK  3 active torsions:
REMARK  status: ('A' for Active; 'I' for Inactive)
REMARK    1  A    between atoms: O_1  and  C_2
REMARK    2  A    between atoms: C_2  and  C_4
REMARK    3  A    between atoms: C_7  and  C_10
REMARK                            x       y       z     vdW  Elec       q    Type
REMARK                         _______ _______ _______ _____ _____    ______ ____
ROOT
ATOM      1  C   UNL     1     -21.410 -11.687 -46.123  0.00  0.00    +0.000 A 
ATOM      2  C   UNL     1     -22.269 -12.725 -45.759  0.00  0.00    +0.000 A 
ATOM      3  C   UNL     1     -21.781 -14.034 -45.628  0.00  0.00    +0.000 A 
ATOM      4  C   UNL     1     -20.427 -14.339 -45.863  0.00  0.00    +0.000 A 
ATOM      5  C   UNL     1     -19.584 -13.270 -46.222  0.00  0.00    +0.000 A 
ATOM      6  C   UNL     1     -20.057 -11.957 -46.332  0.00  0.00    +0.000 A 
ENDROOT
BRANCH   4   7
ATOM      7  C   UNL     1     -19.894 -15.720 -45.730  0.00  0.00    +0.000 A 
ATOM      8  C   UNL     1     -20.676 -16.776 -45.231  0.00  0.00    +0.000 A 
ATOM      9  C   UNL     1     -20.171 -18.079 -45.133  0.00  0.00    +0.000 A 
ATOM     10  C   UNL     1     -18.871 -18.359 -45.545  0.00  0.00    +0.000 A 
ATOM     11  C   UNL     1     -18.071 -17.334 -46.037  0.00  0.00    +0.000 A 
ATOM     12  C   UNL     1     -18.574 -16.032 -46.117  0.00  0.00    +0.000 A 
ENDBRANCH   4   7
BRANCH   1  13
ATOM     13  C   UNL     1     -21.957 -10.311 -46.232  0.00  0.00    +0.000 C 
ATOM     14  O   UNL     1     -21.257  -9.332 -46.421  0.00  0.00    +0.000 OA
BRANCH  13  15
ATOM     15  O   UNL     1     -23.294 -10.245 -46.064  0.00  0.00    +0.000 OA
ATOM     16  H   UNL     1     -23.802 -10.946 -46.514  0.00  0.00    +0.000 HD
ENDBRANCH  13  15
ENDBRANCH   1  13
TORSDOF 3
ENDMDL
MODEL 5
REMARK VINA RESULT:    -7.611      5.379      7.705
REMARK INTER + INTRA:          -9.070
REMARK INTER:                  -8.703
REMARK INTRA:                  -0.367
REMARK UNBOUND:                -0.347
REMARK  Name = 
REMARK  3 active torsions:
REMARK  status: ('A' for Active; 'I' for Inactive)
REMARK    1  A    between atoms: O_1  and  C_2
REMARK    2  A    between atoms: C_2  and  C_4
REMARK    3  A    between atoms: C_7  and  C_10
REMARK                            x       y       z     vdW  Elec       q    Type
REMARK                         _______ _______ _______ _____ _____    ______ ____
ROOT
ATOM      1  C   UNL     1     -15.478 -15.506 -46.970  0.00  0.00    +0.000 A 
ATOM      2  C   UNL     1     -16.531 -16.397 -46.756  0.00  0.00    +0.000 A 
ATOM      3  C   UNL     1     -17.825 -15.914 -46.506  0.00  0.00    +0.000 A 
ATOM      4  C   UNL     1     -18.096 -14.534 -46.457  0.00  0.00    +0.000 A 
ATOM      5  C   UNL     1     -17.014 -13.661 -46.683  0.00  0.00    +0.000 A 
ATOM      6  C   UNL     1     -15.725 -14.133 -46.957  0.00  0.00    +0.000 A 
ENDROOT
BRANCH   4   7
ATOM      7  C   UNL     1     -19.459 -14.006 -46.191  0.00  0.00    +0.000 A 
ATOM      8  C   UNL     1     -19.765 -12.637 -46.302  0.00  0.00    +0.000 A 
ATOM      9  C   UNL     1     -21.060 -12.156 -46.074  0.00  0.00    +0.000 A 
ATOM     10  C   UNL     1     -22.086 -13.034 -45.740  0.00  0.00    +0.000 A 
ATOM     11  C   UNL     1     -21.814 -14.392 -45.616  0.00  0.00    +0.000 A 
ATOM     12  C   UNL     1     -20.516 -14.866 -45.829  0.00  0.00    +0.000 A 
ENDBRANCH   4   7
BRANCH   1  13
ATOM     13  C   UNL     1     -14.127 -16.053 -47.253  0.00  0.00    +0.000 C 
ATOM     14  O   UNL     1     -13.283 -15.443 -47.887  0.00  0.00    +0.000 OA
BRANCH  13  15
ATOM     15  O   UNL     1     -13.936 -17.301 -46.776  0.00  0.00    +0.000 OA
ATOM     16  H   UNL     1     -13.725 -17.352 -45.826  0.00  0.00    +0.000 HD
ENDBRANCH  13  15
ENDBRANCH   1  13
TORSDOF 3
ENDMDL
MODEL 6
REMARK VINA RESULT:    -7.561      4.190      6.610
REMARK INTER + INTRA:          -9.013
REMARK INTER:                  -8.657
REMARK INTRA:                  -0.356
REMARK UNBOUND:                -0.347
REMARK  Name = 
REMARK  3 active torsions:
REMARK  status: ('A' for Active; 'I' for Inactive)
REMARK    1  A    between atoms: O_1  and  C_2
REMARK    2  A    between atoms: C_2  and  C_4
REMARK    3  A    between atoms: C_7  and  C_10
REMARK                            x       y       z     vdW  Elec       q    Type
REMARK                         _______ _______ _______ _____ _____    ______ ____
ROOT
ATOM      1  C   UNL     1     -20.842 -15.144 -45.948  0.00  0.00    +0.000 A 
ATOM      2  C   UNL     1     -22.098 -14.592 -45.695  0.00  0.00    +0.000 A 
ATOM      3  C   UNL     1     -22.251 -13.201 -45.595  0.00  0.00    +0.000 A 
ATOM      4  C   UNL     1     -21.155 -12.330 -45.737  0.00  0.00    +0.000 A 
ATOM      5  C   UNL     1     -19.902 -12.917 -45.998  0.00  0.00    +0.000 A 
ATOM      6  C   UNL     1     -19.743 -14.302 -46.124  0.00  0.00    +0.000 A 
ENDROOT
BRANCH   4   7
ATOM      7  C   UNL     1     -21.299 -10.855 -45.632  0.00  0.00    +0.000 A 
ATOM      8  C   UNL     1     -20.341 -10.055 -44.985  0.00  0.00    +0.000 A 
ATOM      9  C   UNL     1     -20.476  -8.663 -44.914  0.00  0.00    +0.000 A 
ATOM     10  C   UNL     1     -21.570  -8.034 -45.501  0.00  0.00    +0.000 A 
ATOM     11  C   UNL     1     -22.538  -8.798 -46.142  0.00  0.00    +0.000 A 
ATOM     12  C   UNL     1     -22.408 -10.189 -46.196  0.00  0.00    +0.000 A 
ENDBRANCH   4   7
BRANCH   1  13
ATOM     13  C   UNL     1     -20.721 -16.619 -46.069  0.00  0.00    +0.000 C 
ATOM     14  O   UNL     1     -19.657 -17.186 -46.248  0.00  0.00    +0.000 OA
BRANCH  13  15
ATOM     15  O   UNL     1     -21.903 -17.267 -46.000  0.00  0.00    +0.000 OA
ATOM     16  H   UNL     1     -22.208 -17.475 -45.097  0.00  0.00    +0.000 HD
ENDBRANCH  13  15
ENDBRANCH   1  13
TORSDOF 3
ENDMDL
MODEL 7
REMARK VINA RESULT:    -7.561      5.292      6.713
REMARK INTER + INTRA:          -9.013
REMARK INTER:                  -8.651
REMARK INTRA:                  -0.363
REMARK UNBOUND:                -0.347
REMARK  Name = 
REMARK  3 active torsions:
REMARK  status: ('A' for Active; 'I' for Inactive)
REMARK    1  A    between atoms: O_1  and  C_2
REMARK    2  A    between atoms: C_2  and  C_4
REMARK    3  A    between atoms: C_7  and  C_10
REMARK                            x       y       z     vdW  Elec       q    Type
REMARK                         _______ _______ _______ _____ _____    ______ ____
ROOT
ATOM      1  C   UNL     1     -17.083 -14.756 -46.530  0.00  0.00    +0.000 A 
ATOM      2  C   UNL     1     -17.597 -16.000 -46.161  0.00  0.00    +0.000 A 
ATOM      3  C   UNL     1     -18.950 -16.132 -45.817  0.00  0.00    +0.000 A 
ATOM      4  C   UNL     1     -19.820 -15.025 -45.824  0.00  0.00    +0.000 A 
ATOM      5  C   UNL     1     -19.274 -13.785 -46.207  0.00  0.00    +0.000 A 
ATOM      6  C   UNL     1     -17.931 -13.649 -46.576  0.00  0.00    +0.000 A 
ENDROOT
BRANCH   4   7
ATOM      7  C   UNL     1     -21.256 -15.147 -45.461  0.00  0.00    +0.000 A 
ATOM      8  C   UNL     1     -21.730 -16.177 -44.629  0.00  0.00    +0.000 A 
ATOM      9  C   UNL     1     -23.082 -16.267 -44.273  0.00  0.00    +0.000 A 
ATOM     10  C   UNL     1     -23.992 -15.320 -44.732  0.00  0.00    +0.000 A 
ATOM     11  C   UNL     1     -23.555 -14.294 -45.562  0.00  0.00    +0.000 A 
ATOM     12  C   UNL     1     -22.208 -14.217 -45.928  0.00  0.00    +0.000 A 
ENDBRANCH   4   7
BRANCH   1  13
ATOM     13  C   UNL     1     -15.651 -14.658 -46.908  0.00  0.00    +0.000 C 
ATOM     14  O   UNL     1     -14.961 -15.632 -47.155  0.00  0.00    +0.000 OA
BRANCH  13  15
ATOM     15  O   UNL     1     -15.177 -13.394 -46.915  0.00  0.00    +0.000 OA
ATOM     16  H   UNL     1     -14.730 -13.125 -47.739  0.00  0.00    +0.000 HD
ENDBRANCH  13  15
ENDBRANCH   1  13
TORSDOF 3
ENDMDL
MODEL 8
REMARK VINA RESULT:    -7.556      5.771      8.365
REMARK INTER + INTRA:          -9.007
REMARK INTER:                  -8.649
REMARK INTRA:                  -0.358
REMARK UNBOUND:                -0.347
REMARK  Name = 
REMARK  3 active torsions:
REMARK  status: ('A' for Active; 'I' for Inactive)
REMARK    1  A    between atoms: O_1  and  C_2
REMARK    2  A    between atoms: C_2  and  C_4
REMARK    3  A    between atoms: C_7  and  C_10
REMARK                            x       y       z     vdW  Elec       q    Type
REMARK                         _______ _______ _______ _____ _____    ______ ____
ROOT
ATOM      1  C   UNL     1     -19.322 -18.264 -45.213  0.00  0.00    +0.000 A 
ATOM      2  C   UNL     1     -20.640 -17.867 -44.977  0.00  0.00    +0.000 A 
ATOM      3  C   UNL     1     -21.028 -16.538 -45.202  0.00  0.00    +0.000 A 
ATOM      4  C   UNL     1     -20.112 -15.573 -45.660  0.00  0.00    +0.000 A 
ATOM      5  C   UNL     1     -18.792 -16.005 -45.895  0.00  0.00    +0.000 A 
ATOM      6  C   UNL     1     -18.401 -17.334 -45.696  0.00  0.00    +0.000 A 
ENDROOT
BRANCH   4   7
ATOM      7  C   UNL     1     -20.507 -14.161 -45.902  0.00  0.00    +0.000 A 
ATOM      8  C   UNL     1     -21.827 -13.714 -45.718  0.00  0.00    +0.000 A 
ATOM      9  C   UNL     1     -22.182 -12.375 -45.925  0.00  0.00    +0.000 A 
ATOM     10  C   UNL     1     -21.220 -11.446 -46.311  0.00  0.00    +0.000 A 
ATOM     11  C   UNL     1     -19.907 -11.860 -46.507  0.00  0.00    +0.000 A 
ATOM     12  C   UNL     1     -19.561 -13.200 -46.315  0.00  0.00    +0.000 A 
ENDBRANCH   4   7
BRANCH   1  13
ATOM     13  C   UNL     1     -18.952 -19.683 -44.984  0.00  0.00    +0.000 C 
ATOM     14  O   UNL     1     -18.945 -20.198 -43.879  0.00  0.00    +0.000 OA
BRANCH  13  15
ATOM     15  O   UNL     1     -18.587 -20.336 -46.107  0.00  0.00    +0.000 OA
ATOM     16  H   UNL     1     -18.748 -19.851 -46.938  0.00  0.00    +0.000 HD
ENDBRANCH  13  15
ENDBRANCH   1  13
TORSDOF 3
ENDMDL
MODEL 9
REMARK VINA RESULT:    -7.147     11.585     12.827
REMARK INTER + INTRA:          -8.538
REMARK INTER:                  -8.178
REMARK INTRA:                  -0.360
REMARK UNBOUND:                -0.347
REMARK  Name = 
REMARK  3 active torsions:
REMARK  status: ('A' for Active; 'I' for Inactive)
REMARK    1  A    between atoms: O_1  and  C_2
REMARK    2  A    between atoms: C_2  and  C_4
REMARK    3  A    between atoms: C_7  and  C_10
REMARK                            x       y       z     vdW  Elec       q    Type
REMARK                         _______ _______ _______ _____ _____    ______ ____
ROOT
ATOM      1  C   UNL     1      -7.780  -8.908 -50.271  0.00  0.00    +0.000 A 
ATOM      2  C   UNL     1      -8.926  -8.625 -49.527  0.00  0.00    +0.000 A 
ATOM      3  C   UNL     1      -9.975  -9.554 -49.463  0.00  0.00    +0.000 A 
ATOM      4  C   UNL     1      -9.908 -10.784 -50.144  0.00  0.00    +0.000 A 
ATOM      5  C   UNL     1      -8.736 -11.044 -50.881  0.00  0.00    +0.000 A 
ATOM      6  C   UNL     1      -7.675 -10.133 -50.931  0.00  0.00    +0.000 A 
ENDROOT
BRANCH   4   7
ATOM      7  C   UNL     1     -11.010 -11.779 -50.088  0.00  0.00    +0.000 A 
ATOM      8  C   UNL     1     -12.183 -11.552 -49.346  0.00  0.00    +0.000 A 
ATOM      9  C   UNL     1     -13.226 -12.486 -49.320  0.00  0.00    +0.000 A 
ATOM     10  C   UNL     1     -13.126 -13.669 -50.048  0.00  0.00    +0.000 A 
ATOM     11  C   UNL     1     -11.976 -13.924 -50.786  0.00  0.00    +0.000 A 
ATOM     12  C   UNL     1     -10.931 -12.997 -50.795  0.00  0.00    +0.000 A 
ENDBRANCH   4   7
BRANCH   1  13
ATOM     13  C   UNL     1      -6.681  -7.910 -50.300  0.00  0.00    +0.000 C 
ATOM     14  O   UNL     1      -6.237  -7.441 -51.333  0.00  0.00    +0.000 OA
BRANCH  13  15
ATOM     15  O   UNL     1      -6.197  -7.602 -49.078  0.00  0.00    +0.000 OA
ATOM     16  H   UNL     1      -6.846  -7.652 -48.352  0.00  0.00    +0.000 HD
ENDBRANCH  13  15
ENDBRANCH   1  13
TORSDOF 3
ENDMDL
