MODEL 1
REMARK VINA RESULT:    -6.670      0.000      0.000
REMARK INTER + INTRA:          -7.316
REMARK INTER:                  -7.255
REMARK INTRA:                  -0.061
REMARK UNBOUND:                -0.061
REMARK  Name = 
REMARK  2 active torsions:
REMARK  status: ('A' for Active; 'I' for Inactive)
REMARK    1  A    between atoms: C_2  and  O_3
REMARK    2  A    between atoms: C_2  and  C_4
REMARK                            x       y       z     vdW  Elec       q    Type
REMARK                         _______ _______ _______ _____ _____    ______ ____
ROOT
ATOM      1  C   UNL     1     -21.348 -11.971 -46.110  0.00  0.00    +0.000 A 
ATOM      2  C   UNL     1     -22.230 -13.017 -45.816  0.00  0.00    +0.000 A 
ATOM      3  C   UNL     1     -21.774 -14.333 -45.696  0.00  0.00    +0.000 A 
ATOM      4  C   UNL     1     -20.405 -14.560 -45.875  0.00  0.00    +0.000 A 
ATOM      5  N   UNL     1     -19.683 -15.732 -45.807  0.00  0.00    +0.000 N 
ATOM      6  C   UNL     1     -18.359 -15.484 -46.046  0.00  0.00    +0.000 A 
ATOM      7  C   UNL     1     -18.213 -14.133 -46.265  0.00  0.00    +0.000 A 
ATOM      8  C   UNL     1     -19.499 -13.538 -46.159  0.00  0.00    +0.000 A 
ATOM      9  C   UNL     1     -19.975 -12.216 -46.267  0.00  0.00    +0.000 A 
ATOM     10  H   UNL     1     -20.079 -16.640 -45.602  0.00  0.00    +0.000 HD
ENDROOT
BRANCH   1  12
ATOM     11  O   UNL     1     -21.244  -9.638 -46.564  0.00  0.00    +0.000 OA
ATOM     12  C   UNL     1     -21.903 -10.598 -46.204  0.00  0.00    +0.000 C 
BRANCH  12  13
ATOM     13  O   UNL     1     -23.190 -10.504 -45.806  0.00  0.00    +0.000 OA
ATOM     14  H   UNL     1     -23.313 -10.328 -44.855  0.00  0.00    +0.000 HD
ENDBRANCH  12  13
ENDBRANCH   1  12
TORSDOF 2
ENDMDL
MODEL 2
REMARK VINA RESULT:    -6.628      3.634      5.815
REMARK INTER + INTRA:          -7.271
REMARK INTER:                  -7.214
REMARK INTRA:                  -0.056
REMARK UNBOUND:                -0.061
REMARK  Name = 
REMARK  2 active torsions:
REMARK  status: ('A' for Active; 'I' for Inactive)
REMARK    1  A    between atoms: C_2  and  O_3
REMARK    2  A    between atoms: C_2  and  C_4
REMARK                            x       y       z     vdW  Elec       q    Type
REMARK                         _______ _______ _______ _____ _____    ______ ____
ROOT
ATOM      1  C   UNL     1     -21.556 -10.870 -45.580  0.00  0.00    +0.000 A 
ATOM      2  C   UNL     1     -20.360 -10.426 -45.005  0.00  0.00    +0.000 A 
ATOM      3  C   UNL     1     -20.173  -9.080 -44.677  0.00  0.00    +0.000 A 
ATOM      4  C   UNL     1     -21.228  -8.199 -44.941  0.00  0.00    +0.000 A 
ATOM      5  N   UNL     1     -21.330  -6.843 -44.718  0.00  0.00    +0.000 N 
ATOM      6  C   UNL     1     -22.554  -6.389 -45.128  0.00  0.00    +0.000 A 
ATOM      7  C   UNL     1     -23.262  -7.462 -45.618  0.00  0.00    +0.000 A 
ATOM      8  C   UNL     1     -22.436  -8.613 -45.504  0.00  0.00    +0.000 A 
ATOM      9  C   UNL     1     -22.610  -9.974 -45.820  0.00  0.00    +0.000 A 
ATOM     10  H   UNL     1     -20.605  -6.274 -44.303  0.00  0.00    +0.000 HD
ENDROOT
BRANCH   1  12
ATOM     11  O   UNL     1     -20.736 -13.027 -46.161  0.00  0.00    +0.000 OA
ATOM     12  C   UNL     1     -21.687 -12.317 -45.885  0.00  0.00    +0.000 C 
BRANCH  12  13
ATOM     13  O   UNL     1     -22.963 -12.760 -45.873  0.00  0.00    +0.000 OA
ATOM     14  H   UNL     1     -23.095 -13.638 -46.276  0.00  0.00    +0.000 HD
ENDBRANCH  12  13
ENDBRANCH   1  12
TORSDOF 2
ENDMDL
MODEL 3
REMARK VINA RESULT:    -6.349      0.781      2.119
REMARK INTER + INTRA:          -6.966
REMARK INTER:                  -6.907
REMARK INTRA:                  -0.059
REMARK UNBOUND:                -0.061
REMARK  Name = 
REMARK  2 active torsions:
REMARK  status: ('A' for Active; 'I' for Inactive)
REMARK    1  A    between atoms: C_2  and  O_3
REMARK    2  A    between atoms: C_2  and  C_4
REMARK                            x       y       z     vdW  Elec       q    Type
REMARK                         _______ _______ _______ _____ _____    ______ ____
ROOT
ATOM      1  C   UNL     1     -21.384 -11.976 -46.046  0.00  0.00    +0.000 A 
ATOM      2  C   UNL     1     -20.030 -12.210 -46.307  0.00  0.00    +0.000 A 
ATOM      3  C   UNL     1     -19.498 -13.501 -46.263  0.00  0.00    +0.000 A 
ATOM      4  C   UNL     1     -20.373 -14.549 -45.952  0.00  0.00    +0.000 A 
ATOM      5  N   UNL     1     -20.136 -15.902 -45.848  0.00  0.00    +0.000 N 
ATOM      6  C   UNL     1     -21.293 -16.559 -45.527  0.00  0.00    +0.000 A 
ATOM      7  C   UNL     1     -22.298 -15.625 -45.429  0.00  0.00    +0.000 A 
ATOM      8  C   UNL     1     -21.730 -14.350 -45.696  0.00  0.00    +0.000 A 
ATOM      9  C   UNL     1     -22.251 -13.043 -45.755  0.00  0.00    +0.000 A 
ATOM     10  H   UNL     1     -19.237 -16.341 -45.996  0.00  0.00    +0.000 HD
ENDROOT
BRANCH   1  12
ATOM     11  O   UNL     1     -21.157  -9.632 -46.384  0.00  0.00    +0.000 OA
ATOM     12  C   UNL     1     -21.880 -10.580 -46.130  0.00  0.00    +0.000 C 
BRANCH  12  13
ATOM     13  O   UNL     1     -23.195 -10.453 -45.852  0.00  0.00    +0.000 OA
ATOM     14  H   UNL     1     -23.637 -11.278 -45.577  0.00  0.00    +0.000 HD
ENDBRANCH  12  13
ENDBRANCH   1  12
TORSDOF 2
ENDMDL
MODEL 4
REMARK VINA RESULT:    -6.315      3.154      4.630
REMARK INTER + INTRA:          -6.930
REMARK INTER:                  -6.877
REMARK INTRA:                  -0.053
REMARK UNBOUND:                -0.061
REMARK  Name = 
REMARK  2 active torsions:
REMARK  status: ('A' for Active; 'I' for Inactive)
REMARK    1  A    between atoms: C_2  and  O_3
REMARK    2  A    between atoms: C_2  and  C_4
REMARK                            x       y       z     vdW  Elec       q    Type
REMARK                         _______ _______ _______ _____ _____    ______ ____
ROOT
ATOM      1  C   UNL     1     -21.767  -7.691 -45.232  0.00  0.00    +0.000 A 
ATOM      2  C   UNL     1     -22.942  -7.964 -45.941  0.00  0.00    +0.000 A 
ATOM      3  C   UNL     1     -23.209  -9.247 -46.427  0.00  0.00    +0.000 A 
ATOM      4  C   UNL     1     -22.261 -10.244 -46.173  0.00  0.00    +0.000 A 
ATOM      5  N   UNL     1     -22.262 -11.579 -46.515  0.00  0.00    +0.000 N 
ATOM      6  C   UNL     1     -21.125 -12.185 -46.052  0.00  0.00    +0.000 A 
ATOM      7  C   UNL     1     -20.378 -11.237 -45.392  0.00  0.00    +0.000 A 
ATOM      8  C   UNL     1     -21.085 -10.006 -45.460  0.00  0.00    +0.000 A 
ATOM      9  C   UNL     1     -20.836  -8.709 -44.970  0.00  0.00    +0.000 A 
ATOM     10  H   UNL     1     -23.002 -12.040 -47.028  0.00  0.00    +0.000 HD
ENDROOT
BRANCH   1  12
ATOM     11  O   UNL     1     -22.445  -5.653 -44.209  0.00  0.00    +0.000 OA
ATOM     12  C   UNL     1     -21.561  -6.309 -44.731  0.00  0.00    +0.000 C 
BRANCH  12  13
ATOM     13  O   UNL     1     -20.318  -5.831 -44.953  0.00  0.00    +0.000 OA
ATOM     14  H   UNL     1     -19.634  -6.173 -44.349  0.00  0.00    +0.000 HD
ENDBRANCH  12  13
ENDBRANCH   1  12
TORSDOF 2
ENDMDL
MODEL 5
REMARK VINA RESULT:    -6.290      3.764      5.203
REMARK INTER + INTRA:          -6.902
REMARK INTER:                  -6.846
REMARK INTRA:                  -0.056
REMARK UNBOUND:                -0.061
REMARK  Name = 
REMARK  2 active torsions:
REMARK  status: ('A' for Active; 'I' for Inactive)
REMARK    1  A    between atoms: C_2  and  O_3
REMARK    2  A    between atoms: C_2  and  C_4
REMARK                            x       y       z     vdW  Elec       q    Type
REMARK                         _______ _______ _______ _____ _____    ______ ____
ROOT
ATOM      1  C   UNL     1     -19.044 -15.787 -45.823  0.00  0.00    +0.000 A 
ATOM      2  C   UNL     1     -18.115 -14.803 -46.180  0.00  0.00    +0.000 A 
ATOM      3  C   UNL     1     -18.511 -13.479 -46.390  0.00  0.00    +0.000 A 
ATOM      4  C   UNL     1     -19.868 -13.178 -46.225  0.00  0.00    +0.000 A 
ATOM      5  N   UNL     1     -20.533 -11.977 -46.354  0.00  0.00    +0.000 N 
ATOM      6  C   UNL     1     -21.866 -12.147 -46.092  0.00  0.00    +0.000 A 
ATOM      7  C   UNL     1     -22.071 -13.471 -45.781  0.00  0.00    +0.000 A 
ATOM      8  C   UNL     1     -20.816 -14.134 -45.860  0.00  0.00    +0.000 A 
ATOM      9  C   UNL     1     -20.398 -15.461 -45.643  0.00  0.00    +0.000 A 
ATOM     10  H   UNL     1     -20.093 -11.101 -46.599  0.00  0.00    +0.000 HD
ENDROOT
BRANCH   1  12
ATOM     11  O   UNL     1     -17.608 -17.643 -46.215  0.00  0.00    +0.000 OA
ATOM     12  C   UNL     1     -18.545 -17.167 -45.599  0.00  0.00    +0.000 C 
BRANCH  12  13
ATOM     13  O   UNL     1     -19.257 -17.859 -44.685  0.00  0.00    +0.000 OA
ATOM     14  H   UNL     1     -20.144 -17.499 -44.499  0.00  0.00    +0.000 HD
ENDBRANCH  12  13
ENDBRANCH   1  12
TORSDOF 2
ENDMDL
MODEL 6
REMARK VINA RESULT:    -6.214      3.554      4.700
REMARK INTER + INTRA:          -6.820
REMARK INTER:                  -6.763
REMARK INTRA:                  -0.058
REMARK UNBOUND:                -0.061
REMARK  Name = 
REMARK  2 active torsions:
REMARK  status: ('A' for Active; 'I' for Inactive)
REMARK    1  A    between atoms: C_2  and  O_3
REMARK    2  A    between atoms: C_2  and  C_4
REMARK                            x       y       z     vdW  Elec       q    Type
REMARK                         _______ _______ _______ _____ _____    ______ ____
ROOT
ATOM      1  C   UNL     1     -19.324 -15.336 -45.877  0.00  0.00    +0.000 A 
ATOM      2  C   UNL     1     -20.579 -15.884 -45.594  0.00  0.00    +0.000 A 
ATOM      3  C   UNL     1     -21.725 -15.084 -45.563  0.00  0.00    +0.000 A 
ATOM      4  C   UNL     1     -21.567 -13.720 -45.829  0.00  0.00    +0.000 A 
ATOM      5  N   UNL     1     -22.504 -12.710 -45.877  0.00  0.00    +0.000 N 
ATOM      6  C   UNL     1     -21.899 -11.521 -46.182  0.00  0.00    +0.000 A 
ATOM      7  C   UNL     1     -20.553 -11.758 -46.344  0.00  0.00    +0.000 A 
ATOM      8  C   UNL     1     -20.330 -13.145 -46.124  0.00  0.00    +0.000 A 
ATOM      9  C   UNL     1     -19.188 -13.967 -46.161  0.00  0.00    +0.000 A 
ATOM     10  H   UNL     1     -23.494 -12.836 -45.716  0.00  0.00    +0.000 HD
ENDROOT
BRANCH   1  12
ATOM     11  O   UNL     1     -17.191 -16.071 -46.633  0.00  0.00    +0.000 OA
ATOM     12  C   UNL     1     -18.155 -16.251 -45.910  0.00  0.00    +0.000 C 
BRANCH  12  13
ATOM     13  O   UNL     1     -18.284 -17.325 -45.102  0.00  0.00    +0.000 OA
ATOM     14  H   UNL     1     -19.129 -17.804 -45.189  0.00  0.00    +0.000 HD
ENDBRANCH  12  13
ENDBRANCH   1  12
TORSDOF 2
ENDMDL
MODEL 7
REMARK VINA RESULT:    -6.147      8.586     10.142
REMARK INTER + INTRA:          -6.746
REMARK INTER:                  -6.699
REMARK INTRA:                  -0.047
REMARK UNBOUND:                -0.061
REMARK  Name = 
REMARK  2 active torsions:
REMARK  status: ('A' for Active; 'I' for Inactive)
REMARK    1  A    between atoms: C_2  and  O_3
REMARK    2  A    between atoms: C_2  and  C_4
REMARK                            x       y       z     vdW  Elec       q    Type
REMARK                         _______ _______ _______ _____ _____    ______ ____
ROOT
ATOM      1  C   UNL     1     -11.067 -10.893 -49.320  0.00  0.00    +0.000 A 
ATOM      2  C   UNL     1     -10.219 -11.658 -50.129  0.00  0.00    +0.000 A 
ATOM      3  C   UNL     1     -10.662 -12.846 -50.718  0.00  0.00    +0.000 A 
ATOM      4  C   UNL     1     -11.983 -13.235 -50.471  0.00  0.00    +0.000 A 
ATOM      5  N   UNL     1     -12.683 -14.334 -50.920  0.00  0.00    +0.000 N 
ATOM      6  C   UNL     1     -13.961 -14.310 -50.429  0.00  0.00    +0.000 A 
ATOM      7  C   UNL     1     -14.099 -13.179 -49.659  0.00  0.00    +0.000 A 
ATOM      8  C   UNL     1     -12.856 -12.490 -49.678  0.00  0.00    +0.000 A 
ATOM      9  C   UNL     1     -12.396 -11.290 -49.100  0.00  0.00    +0.000 A 
ATOM     10  H   UNL     1     -12.305 -15.047 -51.528  0.00  0.00    +0.000 HD
ENDROOT
BRANCH   1  12
ATOM     11  O   UNL     1     -10.014  -9.575 -47.643  0.00  0.00    +0.000 OA
ATOM     12  C   UNL     1     -10.532  -9.634 -48.744  0.00  0.00    +0.000 C 
BRANCH  12  13
ATOM     13  O   UNL     1     -10.717  -8.555 -49.534  0.00  0.00    +0.000 OA
ATOM     14  H   UNL     1     -10.083  -8.472 -50.269  0.00  0.00    +0.000 HD
ENDBRANCH  12  13
ENDBRANCH   1  12
TORSDOF 2
ENDMDL
MODEL 8
REMARK VINA RESULT:    -6.117      3.790      4.840
REMARK INTER + INTRA:          -6.714
REMARK INTER:                  -6.666
REMARK INTRA:                  -0.048
REMARK UNBOUND:                -0.061
REMARK  Name = 
REMARK  2 active torsions:
REMARK  status: ('A' for Active; 'I' for Inactive)
REMARK    1  A    between atoms: C_2  and  O_3
REMARK    2  A    between atoms: C_2  and  C_4
REMARK                            x       y       z     vdW  Elec       q    Type
REMARK                         _______ _______ _______ _____ _____    ______ ____
ROOT
ATOM      1  C   UNL     1     -21.464 -16.077 -45.493  0.00  0.00    +0.000 A 
ATOM      2  C   UNL     1     -22.799 -15.701 -45.313  0.00  0.00    +0.000 A 
ATOM      3  C   UNL     1     -23.196 -14.367 -45.441  0.00  0.00    +0.000 A 
ATOM      4  C   UNL     1     -22.209 -13.427 -45.759  0.00  0.00    +0.000 A 
ATOM      5  N   UNL     1     -22.308 -12.067 -45.955  0.00  0.00    +0.000 N 
ATOM      6  C   UNL     1     -21.079 -11.544 -46.258  0.00  0.00    +0.000 A 
ATOM      7  C   UNL     1     -20.170 -12.577 -46.268  0.00  0.00    +0.000 A 
ATOM      8  C   UNL     1     -20.871 -13.773 -45.956  0.00  0.00    +0.000 A 
ATOM      9  C   UNL     1     -20.491 -15.123 -45.833  0.00  0.00    +0.000 A 
ATOM     10  H   UNL     1     -23.167 -11.538 -45.890  0.00  0.00    +0.000 HD
ENDROOT
BRANCH   1  12
ATOM     11  O   UNL     1     -21.497 -18.364 -46.149  0.00  0.00    +0.000 OA
ATOM     12  C   UNL     1     -21.121 -17.516 -45.359  0.00  0.00    +0.000 C 
BRANCH  12  13
ATOM     13  O   UNL     1     -20.397 -17.800 -44.256  0.00  0.00    +0.000 OA
ATOM     14  H   UNL     1     -19.443 -17.617 -44.334  0.00  0.00    +0.000 HD
ENDBRANCH  12  13
ENDBRANCH   1  12
TORSDOF 2
ENDMDL
MODEL 9
REMARK VINA RESULT:    -5.912      8.861     10.450
REMARK INTER + INTRA:          -6.491
REMARK INTER:                  -6.441
REMARK INTRA:                  -0.050
REMARK UNBOUND:                -0.061
REMARK  Name = 
REMARK  2 active torsions:
REMARK  status: ('A' for Active; 'I' for Inactive)
REMARK    1  A    between atoms: C_2  and  O_3
REMARK    2  A    between atoms: C_2  and  C_4
REMARK                            x       y       z     vdW  Elec       q    Type
REMARK                         _______ _______ _______ _____ _____    ______ ____
ROOT
ATOM      1  C   UNL     1     -12.553 -12.412 -49.515  0.00  0.00    +0.000 A 
ATOM      2  C   UNL     1     -11.636 -13.121 -50.299  0.00  0.00    +0.000 A 
ATOM      3  C   UNL     1     -10.409 -12.558 -50.659  0.00  0.00    +0.000 A 
ATOM      4  C   UNL     1     -10.133 -11.264 -50.203  0.00  0.00    +0.000 A 
ATOM      5  N   UNL     1      -9.019 -10.475 -50.391  0.00  0.00    +0.000 N 
ATOM      6  C   UNL     1      -9.180  -9.274 -49.754  0.00  0.00    +0.000 A 
ATOM      7  C   UNL     1     -10.410  -9.283 -49.137  0.00  0.00    +0.000 A 
ATOM      8  C   UNL     1     -11.022 -10.535 -49.412  0.00  0.00    +0.000 A 
ATOM      9  C   UNL     1     -12.251 -11.122 -49.050  0.00  0.00    +0.000 A 
ATOM     10  H   UNL     1      -8.201 -10.751 -50.917  0.00  0.00    +0.000 HD
ENDROOT
BRANCH   1  12
ATOM     11  O   UNL     1     -14.639 -13.455 -49.987  0.00  0.00    +0.000 OA
ATOM     12  C   UNL     1     -13.829 -13.082 -49.157  0.00  0.00    +0.000 C 
BRANCH  12  13
ATOM     13  O   UNL     1     -14.026 -13.196 -47.826  0.00  0.00    +0.000 OA
ATOM     14  H   UNL     1     -13.370 -12.733 -47.274  0.00  0.00    +0.000 HD
ENDBRANCH  12  13
ENDBRANCH   1  12
TORSDOF 2
ENDMDL
