MODEL 1
REMARK VINA RESULT:    -8.176      0.000      0.000
REMARK INTER + INTRA:         -20.165
REMARK INTER:                 -16.062
REMARK INTRA:                  -4.103
REMARK UNBOUND:                -4.103
REMARK SMILES Cc1c(-c2c(-c3ccc(F)o3)sc3ncnc(O[C@H](Cc4ccccc4OCc4ccnn4CC(F)(F)F)C(=O)O)c23)ccc(OCCN2CCN(C)CC2)c1Cl
REMARK SMILES IDX 19 1 20 2 21 3 26 4 25 5 24 6 22 7 23 8 27 9 28 10 29 11
REMARK SMILES IDX 32 12 33 13 31 14 30 15 34 16 35 17 36 18 38 19 37 20 18 21
REMARK SMILES IDX 17 22 16 23 42 24 15 25 13 26 4 27 14 28 12 29 5 30 3 31
REMARK SMILES IDX 2 32 43 33 56 34 44 35 45 36 1 37 57 38 46 39 47 40 48 41
REMARK SMILES IDX 49 42 50 43 55 44 51 45 54 46 52 47 53 48 6 49 11 50 7 51
REMARK SMILES IDX 9 52 8 53 10 54 39 55 40 56 41 57
REMARK H PARENT 41 58
ROOT
ATOM      1  C   UNL     1     -14.535  13.050  -6.818  1.00  0.00     0.288 C 
ENDROOT
BRANCH   1   2
ATOM      2  C   UNL     1     -14.637  11.779  -7.663  1.00  0.00     0.097 C 
BRANCH   2   3
ATOM      3  C   UNL     1     -15.115  10.639  -6.802  1.00  0.00    -0.002 A 
ATOM      4  C   UNL     1     -16.474  10.407  -6.649  1.00  0.00     0.123 A 
ATOM      5  C   UNL     1     -16.911   9.357  -5.854  1.00  0.00     0.047 A 
ATOM      6  C   UNL     1     -15.991   8.542  -5.222  1.00  0.00     0.004 A 
ATOM      7  C   UNL     1     -14.201   9.825  -6.163  1.00  0.00     0.008 A 
ATOM      8  C   UNL     1     -14.638   8.772  -5.380  1.00  0.00     0.001 A 
BRANCH   4   9
ATOM      9  O   UNL     1     -17.377  11.210  -7.272  1.00  0.00    -0.487 OA
BRANCH   9  10
ATOM     10  C   UNL     1     -18.703  10.698  -7.426  1.00  0.00     0.285 C 
BRANCH  10  11
ATOM     11  C   UNL     1     -19.699  11.791  -7.140  1.00  0.00     0.076 A 
ATOM     12  N   UNL     1     -21.549  12.886  -6.568  1.00  0.00    -0.181 NA
ATOM     13  N   UNL     1     -20.966  11.620  -6.708  1.00  0.00    -0.257 N 
ATOM     14  C   UNL     1     -20.661  13.785  -6.907  1.00  0.00     0.135 A 
ATOM     15  C   UNL     1     -19.484  13.121  -7.272  1.00  0.00     0.049 A 
BRANCH  13  16
ATOM     16  C   UNL     1     -21.616  10.337  -6.432  1.00  0.00     0.259 C 
BRANCH  16  17
ATOM     17  C   UNL     1     -21.367   9.942  -4.975  1.00  0.00     0.408 C 
ATOM     18  F   UNL     1     -22.431   9.157  -4.517  1.00  0.00    -0.169 F 
ATOM     19  F   UNL     1     -21.267  11.095  -4.190  1.00  0.00    -0.169 F 
ATOM     20  F   UNL     1     -20.176   9.213  -4.887  1.00  0.00    -0.169 F 
ENDBRANCH  16  17
ENDBRANCH  13  16
ENDBRANCH  10  11
ENDBRANCH   9  10
ENDBRANCH   4   9
ENDBRANCH   2   3
ENDBRANCH   1   2
BRANCH   1  21
ATOM     21  O   UNL     1     -13.648  12.821  -5.720  1.00  0.00    -0.461 OA
BRANCH  21  22
ATOM     22  C   UNL     1     -13.657  13.736  -4.722  1.00  0.00     0.226 A 
ATOM     23  N   UNL     1     -14.714  14.507  -4.526  1.00  0.00    -0.201 NA
ATOM     24  C   UNL     1     -12.532  13.883  -3.871  1.00  0.00     0.082 A 
ATOM     25  C   UNL     1     -14.735  15.404  -3.557  1.00  0.00     0.227 A 
ATOM     26  C   UNL     1     -12.605  14.846  -2.862  1.00  0.00     0.131 A 
ATOM     27  C   UNL     1     -11.262  13.174  -3.869  1.00  0.00     0.019 A 
ATOM     28  N   UNL     1     -13.719  15.578  -2.744  1.00  0.00    -0.225 NA
ATOM     29  S   UNL     1     -11.116  14.863  -1.929  1.00  0.00    -0.111 S 
ATOM     30  C   UNL     1     -10.404  13.584  -2.895  1.00  0.00     0.081 A 
BRANCH  27  31
ATOM     31  C   UNL     1     -10.932  12.105  -4.836  1.00  0.00    -0.011 A 
ATOM     32  C   UNL     1     -11.158  10.767  -4.506  1.00  0.00    -0.021 A 
ATOM     33  C   UNL     1     -10.392  12.430  -6.082  1.00  0.00     0.013 A 
ATOM     34  C   UNL     1     -10.855   9.773  -5.413  1.00  0.00     0.086 A 
ATOM     35  C   UNL     1     -10.085  11.431  -6.982  1.00  0.00     0.049 A 
ATOM     36  C   UNL     1     -10.317  10.103  -6.652  1.00  0.00     0.138 A 
ATOM     37  C   UNL     1     -11.741  10.410  -3.163  1.00  0.00     0.047 C 
ATOM     38  Cl  UNL     1     -11.142   8.111  -5.006  1.00  0.00    -0.080 Cl
BRANCH  36  39
ATOM     39  O   UNL     1     -10.019   9.121  -7.544  1.00  0.00    -0.491 OA
BRANCH  39  40
ATOM     40  C   UNL     1     -10.763   9.104  -8.763  1.00  0.00     0.245 C 
BRANCH  40  41
ATOM     41  C   UNL     1     -11.425   7.736  -8.938  1.00  0.00     0.126 C 
BRANCH  41  42
ATOM     42  N   UNL     1     -12.739   7.907  -9.573  1.00  0.00    -0.297 NA
ATOM     43  C   UNL     1     -13.802   7.313  -8.751  1.00  0.00     0.100 C 
ATOM     44  C   UNL     1     -13.014   9.326  -9.841  1.00  0.00     0.100 C 
ATOM     45  C   UNL     1     -15.141   7.442  -9.483  1.00  0.00     0.099 C 
ATOM     46  C   UNL     1     -14.352   9.453 -10.572  1.00  0.00     0.099 C 
ATOM     47  N   UNL     1     -15.416   8.860  -9.750  1.00  0.00    -0.304 NA
ATOM     48  C   UNL     1     -16.730   9.031 -10.384  1.00  0.00     0.105 C 
ENDBRANCH  41  42
ENDBRANCH  40  41
ENDBRANCH  39  40
ENDBRANCH  36  39
ENDBRANCH  27  31
BRANCH  30  49
ATOM     49  C   UNL     1      -9.063  13.028  -2.680  1.00  0.00     0.148 A 
ATOM     50  O   UNL     1      -8.089  13.579  -1.924  1.00  0.00    -0.430 OA
ATOM     51  C   UNL     1      -8.582  11.869  -3.213  1.00  0.00     0.055 A 
ATOM     52  C   UNL     1      -7.001  12.794  -1.960  1.00  0.00     0.278 A 
ATOM     53  C   UNL     1      -7.263  11.725  -2.745  1.00  0.00     0.084 A 
ATOM     54  F   UNL     1      -5.836  13.033  -1.319  1.00  0.00    -0.164 F 
ENDBRANCH  30  49
ENDBRANCH  21  22
ENDBRANCH   1  21
BRANCH   1  55
ATOM     55  C   UNL     1     -14.002  14.176  -7.665  1.00  0.00     0.345 C 
ATOM     56  O   UNL     1     -12.917  14.079  -8.188  1.00  0.00    -0.248 OA
BRANCH  55  57
ATOM     57  O   UNL     1     -14.733  15.289  -7.838  1.00  0.00    -0.478 OA
ATOM     58  H   UNL     1     -15.721  15.233  -7.863  1.00  0.00     0.296 HD
ENDBRANCH  55  57
ENDBRANCH   1  55
TORSDOF 17
ENDMDL
MODEL 2
REMARK VINA RESULT:    -8.145      1.942      2.384
REMARK INTER + INTRA:         -20.105
REMARK INTER:                 -15.309
REMARK INTRA:                  -4.796
REMARK UNBOUND:                -4.103
REMARK SMILES Cc1c(-c2c(-c3ccc(F)o3)sc3ncnc(O[C@H](Cc4ccccc4OCc4ccnn4CC(F)(F)F)C(=O)O)c23)ccc(OCCN2CCN(C)CC2)c1Cl
REMARK SMILES IDX 19 1 20 2 21 3 26 4 25 5 24 6 22 7 23 8 27 9 28 10 29 11
REMARK SMILES IDX 32 12 33 13 31 14 30 15 34 16 35 17 36 18 38 19 37 20 18 21
REMARK SMILES IDX 17 22 16 23 42 24 15 25 13 26 4 27 14 28 12 29 5 30 3 31
REMARK SMILES IDX 2 32 43 33 56 34 44 35 45 36 1 37 57 38 46 39 47 40 48 41
REMARK SMILES IDX 49 42 50 43 55 44 51 45 54 46 52 47 53 48 6 49 11 50 7 51
REMARK SMILES IDX 9 52 8 53 10 54 39 55 40 56 41 57
REMARK H PARENT 41 58
ROOT
ATOM      1  C   UNL     1     -14.425  13.177  -6.879  1.00  0.00     0.288 C 
ENDROOT
BRANCH   1   2
ATOM      2  C   UNL     1     -14.608  11.923  -7.734  1.00  0.00     0.097 C 
BRANCH   2   3
ATOM      3  C   UNL     1     -15.297  10.857  -6.922  1.00  0.00    -0.002 A 
ATOM      4  C   UNL     1     -16.683  10.813  -6.868  1.00  0.00     0.123 A 
ATOM      5  C   UNL     1     -17.315   9.831  -6.120  1.00  0.00     0.047 A 
ATOM      6  C   UNL     1     -16.564   8.896  -5.434  1.00  0.00     0.004 A 
ATOM      7  C   UNL     1     -14.551   9.923  -6.231  1.00  0.00     0.008 A 
ATOM      8  C   UNL     1     -15.183   8.939  -5.494  1.00  0.00     0.001 A 
BRANCH   4   9
ATOM      9  O   UNL     1     -17.420  11.734  -7.544  1.00  0.00    -0.487 OA
BRANCH   9  10
ATOM     10  C   UNL     1     -18.768  11.379  -7.864  1.00  0.00     0.285 C 
BRANCH  10  11
ATOM     11  C   UNL     1     -19.659  12.581  -7.685  1.00  0.00     0.076 A 
ATOM     12  N   UNL     1     -20.665  14.544  -7.972  1.00  0.00    -0.181 NA
ATOM     13  N   UNL     1     -19.708  13.662  -8.491  1.00  0.00    -0.257 N 
ATOM     14  C   UNL     1     -21.171  14.008  -6.891  1.00  0.00     0.135 A 
ATOM     15  C   UNL     1     -20.553  12.769  -6.687  1.00  0.00     0.049 A 
BRANCH  13  16
ATOM     16  C   UNL     1     -18.904  13.875  -9.697  1.00  0.00     0.259 C 
BRANCH  16  17
ATOM     17  C   UNL     1     -17.825  14.922  -9.412  1.00  0.00     0.408 C 
ATOM     18  F   UNL     1     -16.748  14.730 -10.284  1.00  0.00    -0.169 F 
ATOM     19  F   UNL     1     -17.384  14.788  -8.091  1.00  0.00    -0.169 F 
ATOM     20  F   UNL     1     -18.356  16.202  -9.599  1.00  0.00    -0.169 F 
ENDBRANCH  16  17
ENDBRANCH  13  16
ENDBRANCH  10  11
ENDBRANCH   9  10
ENDBRANCH   4   9
ENDBRANCH   2   3
ENDBRANCH   1   2
BRANCH   1  21
ATOM     21  O   UNL     1     -13.614  12.866  -5.744  1.00  0.00    -0.461 OA
BRANCH  21  22
ATOM     22  C   UNL     1     -13.611  13.760  -4.727  1.00  0.00     0.226 A 
ATOM     23  N   UNL     1     -14.652  14.551  -4.525  1.00  0.00    -0.201 NA
ATOM     24  C   UNL     1     -12.492  13.862  -3.862  1.00  0.00     0.082 A 
ATOM     25  C   UNL     1     -14.661  15.428  -3.537  1.00  0.00     0.227 A 
ATOM     26  C   UNL     1     -12.552  14.806  -2.833  1.00  0.00     0.131 A 
ATOM     27  C   UNL     1     -11.239  13.124  -3.863  1.00  0.00     0.019 A 
ATOM     28  N   UNL     1     -13.651  15.561  -2.710  1.00  0.00    -0.225 NA
ATOM     29  S   UNL     1     -11.073  14.767  -1.886  1.00  0.00    -0.111 S 
ATOM     30  C   UNL     1     -10.381  13.493  -2.872  1.00  0.00     0.081 A 
BRANCH  27  31
ATOM     31  C   UNL     1     -10.924  12.068  -4.849  1.00  0.00    -0.011 A 
ATOM     32  C   UNL     1     -11.306  10.747  -4.608  1.00  0.00    -0.021 A 
ATOM     33  C   UNL     1     -10.243  12.389  -6.025  1.00  0.00     0.013 A 
ATOM     34  C   UNL     1     -11.016   9.766  -5.533  1.00  0.00     0.086 A 
ATOM     35  C   UNL     1      -9.950  11.402  -6.943  1.00  0.00     0.049 A 
ATOM     36  C   UNL     1     -10.337  10.091  -6.702  1.00  0.00     0.138 A 
ATOM     37  C   UNL     1     -12.042  10.395  -3.341  1.00  0.00     0.047 C 
ATOM     38  Cl  UNL     1     -11.497   8.125  -5.237  1.00  0.00    -0.080 Cl
BRANCH  36  39
ATOM     39  O   UNL     1     -10.052   9.122  -7.612  1.00  0.00    -0.491 OA
BRANCH  39  40
ATOM     40  C   UNL     1     -10.795   9.139  -8.832  1.00  0.00     0.245 C 
BRANCH  40  41
ATOM     41  C   UNL     1     -11.400   7.756  -9.081  1.00  0.00     0.126 C 
BRANCH  41  42
ATOM     42  N   UNL     1     -12.763   7.905  -9.606  1.00  0.00    -0.297 NA
ATOM     43  C   UNL     1     -13.755   7.389  -8.653  1.00  0.00     0.100 C 
ATOM     44  C   UNL     1     -13.045   9.307  -9.949  1.00  0.00     0.100 C 
ATOM     45  C   UNL     1     -15.153   7.491  -9.270  1.00  0.00     0.099 C 
ATOM     46  C   UNL     1     -14.442   9.407 -10.565  1.00  0.00     0.099 C 
ATOM     47  N   UNL     1     -15.434   8.892  -9.611  1.00  0.00    -0.304 NA
ATOM     48  C   UNL     1     -16.798   9.042 -10.137  1.00  0.00     0.105 C 
ENDBRANCH  41  42
ENDBRANCH  40  41
ENDBRANCH  39  40
ENDBRANCH  36  39
ENDBRANCH  27  31
BRANCH  30  49
ATOM     49  C   UNL     1      -9.056  12.901  -2.656  1.00  0.00     0.148 A 
ATOM     50  O   UNL     1      -8.016  13.494  -2.032  1.00  0.00    -0.430 OA
ATOM     51  C   UNL     1      -8.658  11.659  -3.056  1.00  0.00     0.055 A 
ATOM     52  C   UNL     1      -6.967  12.656  -2.020  1.00  0.00     0.278 A 
ATOM     53  C   UNL     1      -7.322  11.509  -2.643  1.00  0.00     0.084 A 
ATOM     54  F   UNL     1      -5.757  12.916  -1.478  1.00  0.00    -0.164 F 
ENDBRANCH  30  49
ENDBRANCH  21  22
ENDBRANCH   1  21
BRANCH   1  55
ATOM     55  C   UNL     1     -13.753  14.250  -7.696  1.00  0.00     0.345 C 
ATOM     56  O   UNL     1     -12.604  14.114  -8.044  1.00  0.00    -0.248 OA
BRANCH  55  57
ATOM     57  O   UNL     1     -14.431  15.357  -8.037  1.00  0.00    -0.478 OA
ATOM     58  H   UNL     1     -15.421  15.352  -8.033  1.00  0.00     0.296 HD
ENDBRANCH  55  57
ENDBRANCH   1  55
TORSDOF 17
ENDMDL
MODEL 3
REMARK VINA RESULT:    -8.103      3.326      8.928
REMARK INTER + INTRA:         -20.021
REMARK INTER:                 -14.559
REMARK INTRA:                  -5.463
REMARK UNBOUND:                -4.103
REMARK SMILES Cc1c(-c2c(-c3ccc(F)o3)sc3ncnc(O[C@H](Cc4ccccc4OCc4ccnn4CC(F)(F)F)C(=O)O)c23)ccc(OCCN2CCN(C)CC2)c1Cl
REMARK SMILES IDX 19 1 20 2 21 3 26 4 25 5 24 6 22 7 23 8 27 9 28 10 29 11
REMARK SMILES IDX 32 12 33 13 31 14 30 15 34 16 35 17 36 18 38 19 37 20 18 21
REMARK SMILES IDX 17 22 16 23 42 24 15 25 13 26 4 27 14 28 12 29 5 30 3 31
REMARK SMILES IDX 2 32 43 33 56 34 44 35 45 36 1 37 57 38 46 39 47 40 48 41
REMARK SMILES IDX 49 42 50 43 55 44 51 45 54 46 52 47 53 48 6 49 11 50 7 51
REMARK SMILES IDX 9 52 8 53 10 54 39 55 40 56 41 57
REMARK H PARENT 41 58
ROOT
ATOM      1  C   UNL     1     -12.766  12.729  -6.783  1.00  0.00     0.288 C 
ENDROOT
BRANCH   1   2
ATOM      2  C   UNL     1     -13.260  12.011  -5.526  1.00  0.00     0.097 C 
BRANCH   2   3
ATOM      3  C   UNL     1     -12.138  11.193  -4.941  1.00  0.00    -0.002 A 
ATOM      4  C   UNL     1     -12.079  10.973  -3.572  1.00  0.00     0.123 A 
ATOM      5  C   UNL     1     -11.045  10.221  -3.036  1.00  0.00     0.047 A 
ATOM      6  C   UNL     1     -10.078   9.687  -3.867  1.00  0.00     0.004 A 
ATOM      7  C   UNL     1     -11.166  10.662  -5.766  1.00  0.00     0.008 A 
ATOM      8  C   UNL     1     -10.141   9.903  -5.231  1.00  0.00     0.001 A 
BRANCH   4   9
ATOM      9  O   UNL     1     -13.032  11.499  -2.757  1.00  0.00    -0.487 OA
BRANCH   9  10
ATOM     10  C   UNL     1     -12.578  12.273  -1.644  1.00  0.00     0.285 C 
BRANCH  10  11
ATOM     11  C   UNL     1     -12.328  13.692  -2.087  1.00  0.00     0.076 A 
ATOM     12  N   UNL     1     -11.362  15.653  -2.496  1.00  0.00    -0.181 NA
ATOM     13  N   UNL     1     -11.170  14.373  -1.961  1.00  0.00    -0.257 N 
ATOM     14  C   UNL     1     -12.594  15.735  -2.929  1.00  0.00     0.135 A 
ATOM     15  C   UNL     1     -13.226  14.511  -2.682  1.00  0.00     0.049 A 
BRANCH  13  16
ATOM     16  C   UNL     1      -9.931  13.863  -1.369  1.00  0.00     0.259 C 
BRANCH  16  17
ATOM     17  C   UNL     1      -9.017  13.333  -2.476  1.00  0.00     0.408 C 
ATOM     18  F   UNL     1      -8.564  12.055  -2.134  1.00  0.00    -0.169 F 
ATOM     19  F   UNL     1      -7.922  14.191  -2.627  1.00  0.00    -0.169 F 
ATOM     20  F   UNL     1      -9.729  13.271  -3.678  1.00  0.00    -0.169 F 
ENDBRANCH  16  17
ENDBRANCH  13  16
ENDBRANCH  10  11
ENDBRANCH   9  10
ENDBRANCH   4   9
ENDBRANCH   2   3
ENDBRANCH   1   2
BRANCH   1  21
ATOM     21  O   UNL     1     -13.277  12.067  -7.942  1.00  0.00    -0.461 OA
BRANCH  21  22
ATOM     22  C   UNL     1     -12.370  11.606  -8.836  1.00  0.00     0.226 A 
ATOM     23  N   UNL     1     -11.299  12.322  -9.136  1.00  0.00    -0.201 NA
ATOM     24  C   UNL     1     -12.555  10.349  -9.464  1.00  0.00     0.082 A 
ATOM     25  C   UNL     1     -10.407  11.884 -10.007  1.00  0.00     0.227 A 
ATOM     26  C   UNL     1     -11.583   9.932 -10.377  1.00  0.00     0.131 A 
ATOM     27  C   UNL     1     -13.628   9.378  -9.316  1.00  0.00     0.019 A 
ATOM     28  N   UNL     1     -10.533  10.727 -10.615  1.00  0.00    -0.225 NA
ATOM     29  S   UNL     1     -12.003   8.357 -11.035  1.00  0.00    -0.111 S 
ATOM     30  C   UNL     1     -13.475   8.266 -10.088  1.00  0.00     0.081 A 
BRANCH  27  31
ATOM     31  C   UNL     1     -14.779   9.578  -8.410  1.00  0.00    -0.011 A 
ATOM     32  C   UNL     1     -14.776   9.008  -7.136  1.00  0.00    -0.021 A 
ATOM     33  C   UNL     1     -15.874  10.339  -8.827  1.00  0.00     0.013 A 
ATOM     34  C   UNL     1     -15.850   9.202  -6.292  1.00  0.00     0.086 A 
ATOM     35  C   UNL     1     -16.947  10.524  -7.980  1.00  0.00     0.049 A 
ATOM     36  C   UNL     1     -16.937   9.959  -6.712  1.00  0.00     0.138 A 
ATOM     37  C   UNL     1     -13.598   8.186  -6.681  1.00  0.00     0.047 C 
ATOM     38  Cl  UNL     1     -15.844   8.499  -4.705  1.00  0.00    -0.080 Cl
BRANCH  36  39
ATOM     39  O   UNL     1     -17.994  10.149  -5.878  1.00  0.00    -0.491 OA
BRANCH  39  40
ATOM     40  C   UNL     1     -19.297   9.935  -6.423  1.00  0.00     0.245 C 
BRANCH  40  41
ATOM     41  C   UNL     1     -20.241   9.459  -5.317  1.00  0.00     0.126 C 
BRANCH  41  42
ATOM     42  N   UNL     1     -21.311  10.448  -5.129  1.00  0.00    -0.297 NA
ATOM     43  C   UNL     1     -21.794  10.954  -6.421  1.00  0.00     0.100 C 
ATOM     44  C   UNL     1     -22.416   9.885  -4.340  1.00  0.00     0.100 C 
ATOM     45  C   UNL     1     -22.850  12.037  -6.179  1.00  0.00     0.099 C 
ATOM     46  C   UNL     1     -23.471  10.967  -4.099  1.00  0.00     0.099 C 
ATOM     47  N   UNL     1     -23.955  11.473  -5.391  1.00  0.00    -0.304 NA
ATOM     48  C   UNL     1     -25.024  12.461  -5.203  1.00  0.00     0.105 C 
ENDBRANCH  41  42
ENDBRANCH  40  41
ENDBRANCH  39  40
ENDBRANCH  36  39
ENDBRANCH  27  31
BRANCH  30  49
ATOM     49  C   UNL     1     -14.417   7.141 -10.120  1.00  0.00     0.148 A 
ATOM     50  O   UNL     1     -15.648   7.154 -10.674  1.00  0.00    -0.430 OA
ATOM     51  C   UNL     1     -14.203   5.902  -9.592  1.00  0.00     0.055 A 
ATOM     52  C   UNL     1     -16.220   5.950 -10.515  1.00  0.00     0.278 A 
ATOM     53  C   UNL     1     -15.360   5.146  -9.851  1.00  0.00     0.084 A 
ATOM     54  F   UNL     1     -17.452   5.601 -10.946  1.00  0.00    -0.164 F 
ENDBRANCH  30  49
ENDBRANCH  21  22
ENDBRANCH   1  21
BRANCH   1  55
ATOM     55  C   UNL     1     -13.248  14.157  -6.768  1.00  0.00     0.345 C 
ATOM     56  O   UNL     1     -14.079  14.506  -5.964  1.00  0.00    -0.248 OA
BRANCH  55  57
ATOM     57  O   UNL     1     -12.754  15.041  -7.649  1.00  0.00    -0.478 OA
ATOM     58  H   UNL     1     -11.942  15.562  -7.426  1.00  0.00     0.296 HD
ENDBRANCH  55  57
ENDBRANCH   1  55
TORSDOF 17
ENDMDL
